----- GAMESS execution script 'rungms' -----
This job is running on host quitex-server
under operating system Linux at mar ago 14 10:56:09 ART 2018
Available scratch disk space (Kbyte units) at beginning of the job is
S.ficheros     bloques de 1K    Usados Disponibles Uso% Montado en
/dev/sda2          480487128 289385660   166671032  64% /
GAMESS temporary binary files will be written to /scr/nicolai
GAMESS supplementary output files will be written to /home/nicolai/scr
Copying input file AC4-1-Cl.inp to your run's scratch directory...

 Distributed Data Interface kickoff program.
 Initiating 8 compute processes on 1 nodes to run the following command:
 /usr/local/gamess/gamess.00.x AC4-1-Cl 

          ******************************************************
          *         GAMESS VERSION =  5 DEC 2014 (R1)          *
          *             FROM IOWA STATE UNIVERSITY             *
          * M.W.SCHMIDT, K.K.BALDRIDGE, J.A.BOATZ, S.T.ELBERT, *
          *   M.S.GORDON, J.H.JENSEN, S.KOSEKI, N.MATSUNAGA,   *
          *          K.A.NGUYEN, S.J.SU, T.L.WINDUS,           *
          *       TOGETHER WITH M.DUPUIS, J.A.MONTGOMERY       *
          *         J.COMPUT.CHEM.  14, 1347-1363(1993)        *
          **************** 64 BIT LINUX VERSION ****************

  SINCE 1993, STUDENTS AND POSTDOCS WORKING AT IOWA STATE UNIVERSITY
  AND ALSO IN THEIR VARIOUS JOBS AFTER LEAVING ISU HAVE MADE IMPORTANT
  CONTRIBUTIONS TO THE CODE:
     IVANA ADAMOVIC, CHRISTINE AIKENS, YURI ALEXEEV, POOJA ARORA,
     ANDREY ASADCHEV, ROB BELL, PRADIPTA BANDYOPADHYAY, JONATHAN BENTZ,
     BRETT BODE, KURT BRORSEN, CALEB CARLIN, GALINA CHABAN, WEI CHEN,
     CHEOL HO CHOI, PAUL DAY, ALBERT DEFUSCO, NUWAN DESILVA, TIM DUDLEY,
     DMITRI FEDOROV, GRAHAM FLETCHER, MARK FREITAG, KURT GLAESEMANN,
     DAN KEMP, GRANT MERRILL, NORIYUKI MINEZAWA, JONATHAN MULLIN,
     TAKESHI NAGATA, SEAN NEDD, HEATHER NETZLOFF, BOSILJKA NJEGIC, RYAN OLSON,
     MIKE PAK, SPENCER PRUITT, LUKE ROSKOP, JIM SHOEMAKER, LYUDMILA SLIPCHENKO,
     TONY SMITH, SAROM SOK, JIE SONG, TETSUYA TAKETSUGU, SIMON WEBB,
     PENG XU, SOOHAENG YOO, FEDERICO ZAHARIEV

  ADDITIONAL CODE HAS BEEN PROVIDED BY COLLABORATORS IN OTHER GROUPS:
     IOWA STATE UNIVERSITY:
          JOE IVANIC, AARON WEST, LAIMUTIS BYTAUTAS, KLAUS RUEDENBERG
     UNIVERSITY OF TOKYO: KIMIHIKO HIRAO, TAKAHITO NAKAJIMA,
          TAKAO TSUNEDA, MUNEAKI KAMIYA, SUSUMU YANAGISAWA,
          KIYOSHI YAGI, MAHITO CHIBA, SEIKEN TOKURA, NAOAKI KAWAKAMI
     UNIVERSITY OF AARHUS: FRANK JENSEN
     UNIVERSITY OF IOWA: VISVALDAS KAIRYS, HUI LI
     NATIONAL INST. OF STANDARDS AND TECHNOLOGY: WALT STEVENS, DAVID GARMER
     UNIVERSITY OF PISA: BENEDETTA MENNUCCI, JACOPO TOMASI
     UNIVERSITY OF MEMPHIS: HENRY KURTZ, PRAKASHAN KORAMBATH
     UNIVERSITY OF ALBERTA: TOBY ZENG, MARIUSZ KLOBUKOWSKI
     UNIVERSITY OF NEW ENGLAND: MARK SPACKMAN
     MIE UNIVERSITY: HIROAKI UMEDA
     NAT. INST. OF ADVANCED INDUSTRIAL SCIENCE AND TECHNOLOGY: KAZUO KITAURA
     MICHIGAN STATE UNIVERSITY:
          KAROL KOWALSKI, MARTA WLOCH, JEFFREY GOUR, JESSE LUTZ,
          WEI LI, PIOTR PIECUCH
     UNIVERSITY OF SILESIA: MONIKA MUSIAL, STANISLAW KUCHARSKI
     FACULTES UNIVERSITAIRES NOTRE-DAME DE LA PAIX:
          OLIVIER QUINET, BENOIT CHAMPAGNE
     UNIVERSITY OF CALIFORNIA - SANTA BARBARA: BERNARD KIRTMAN
     INSTITUTE FOR MOLECULAR SCIENCE:
          KAZUYA ISHIMURA, MICHIO KATOUDA, AND SHIGERU NAGASE
     UNIVERSITY OF NOTRE DAME: ANNA POMOGAEVA, DAN CHIPMAN
     KYUSHU UNIVERSITY:
          HARUYUKI NAKANO,
          FENG LONG GU, JACEK KORCHOWIEC, MARCIN MAKOWSKI, AND YURIKO AOKI,
          HIROTOSHI MORI AND EISAKU MIYOSHI
     PENNSYLVANIA STATE UNIVERSITY:
          TZVETELIN IORDANOV, CHET SWALINA, JONATHAN SKONE,
          SHARON HAMMES-SCHIFFER
     WASEDA UNIVERSITY:
          MASATO KOBAYASHI, TOMOKO AKAMA, TSUGUKI TOUMA,
          TAKESHI YOSHIKAWA, YASUHIRO IKABATA, HIROMI NAKAI
     NANJING UNIVERSITY: SHUHUA LI
     UNIVERSITY OF NEBRASKA:
          PEIFENG SU, DEJUN SI, NANDUN THELLAMUREGE, YALI WANG, HUI LI
     UNIVERSITY OF ZURICH: ROBERTO PEVERATI, KIM BALDRIDGE
     N. COPERNICUS UNIVERSITY AND JACKSON STATE UNIVERSITY:
          MARIA BARYSZ
     UNIVERSITY OF COPENHAGEN: CASPER STEINMANN
     TOKYO INSTITUTE OF TECHNOLOGY: HIROYA NAKATA
     NAGOYA UNIVERSITY: YOSHIO NISHIMOTO, STEPHAN IRLE


 PARALLEL VERSION RUNNING ON        8 PROCESSORS IN        1 NODES.

 EXECUTION OF GAMESS BEGUN Tue Aug 14 10:56:09 2018

            ECHO OF THE FIRST FEW INPUT CARDS -
 INPUT CARD> $CONTRL SCFTYP=RHF RUNTYP=EDA COORD=UNIQUE DFTTYP=BLYP $END                    
 INPUT CARD> $DFT DC=.TRUE. IDCVER=3 $END                                                   
 INPUT CARD> $CONTRL NOSYM=1 ICHARG=-1 MULT=1 ISPHER=1 nprint=-5 MAXIT=90 $END              
 INPUT CARD> $SCF CONV=1.0d-05 $END                                                         
 INPUT CARD> $SYSTEM MWORDS=60 MEMDDI=5000 $END                                             
 INPUT CARD> $BASIS GBASIS=N311 NGAUSS=6 NDFUNC=1 NPFUNC=1 DIFFSP=.TRUE. DIFFS=.TRUE. $END  
 INPUT CARD> $LMOEDA MATOM(1)=36,1 MCHARG(1)=0,-1 MMULT(1)=1,1 $END                         
 INPUT CARD> $GUESS guess=huckel $END                                                       
 INPUT CARD> $DATA                                                                          
 INPUT CARD>AC-Cl.inp                                                                       
 INPUT CARD>C1                                                                              
 INPUT CARD> C      6.0            2.95383100   -0.97047400    1.09352000                   
 INPUT CARD> C      6.0            4.10120800   -1.39859000   -1.03109100                   
 INPUT CARD> C      6.0            2.51910300   -3.04068100   -0.10780900                   
 INPUT CARD> H      1.0            1.53220300   -2.37981700    1.55042000                   
 INPUT CARD> H      1.0            4.26645200    0.27880000    0.14201100                   
 INPUT CARD> H      1.0            3.53277000   -3.18141500   -1.86850000                   
 INPUT CARD> N      7.0            3.43818300   -2.61635800   -1.03909400                   
 INPUT CARD> N      7.0            2.35545000   -2.20656600    0.96473700                   
 INPUT CARD> N      7.0            3.86805600   -0.66256700    0.10733300                   
 INPUT CARD> O      8.0            4.83687000   -1.05572500   -1.92208200                   
 INPUT CARD> O      8.0            1.93673700   -4.10195600   -0.23427200                   
 INPUT CARD> O      8.0            2.74187700   -0.23800100    2.03434500                   
 INPUT CARD> C      6.0            1.05105900    2.99409400    1.13319900                   
 INPUT CARD> C      6.0            1.68049200    4.22767700   -0.89003300                   
 INPUT CARD> C      6.0            3.26110100    2.66404200    0.16534700                   
 INPUT CARD> H      1.0            2.44229800    1.58971800    1.69808300                   
 INPUT CARD> H      1.0           -0.15245400    4.23223300    0.04061800                   
 INPUT CARD> H      1.0            3.58268000    3.77573200   -1.50943000                   
 INPUT CARD> N      7.0            2.92324300    3.62125100   -0.76275600                   
 INPUT CARD> N      7.0            2.30935300    2.42519700    1.11929300                   
 INPUT CARD> N      7.0            0.81755900    3.91605500    0.13427100                   
 INPUT CARD> O      8.0            1.42012700    4.98007600   -1.79436600                   
 INPUT CARD> O      8.0            4.34249400    2.10605200    0.13602700                   
 INPUT CARD> O      8.0            0.23653100    2.74372900    1.99243700                   
 INPUT CARD> C      6.0           -2.51963700    3.04610700   -0.10421500                   
 INPUT CARD> C      6.0           -2.95178800    0.97223500    1.09172800                   
 INPUT CARD> C      6.0           -4.09547000    1.40202700   -1.03446700                   
 INPUT CARD> H      1.0           -3.52971300    3.18831500   -1.86658900                   
 INPUT CARD> H      1.0           -1.53437900    2.38385000    1.55437700                   
 INPUT CARD> H      1.0           -4.26025000   -0.27777600    0.13532500                   
 INPUT CARD> N      7.0           -3.86306200    0.66431000    0.10298700                   
 INPUT CARD> N      7.0           -3.43564000    2.62183300   -1.03805000                   
 INPUT CARD> N      7.0           -2.35626900    2.21004000    0.96686500                   
 INPUT CARD> O      8.0           -2.74027900    0.23857500    2.03175700                   
 INPUT CARD> O      8.0           -4.82809200    1.05937700   -1.92808100                   
 INPUT CARD> O      8.0           -1.93926500    4.10900000   -0.22719600                   
 INPUT CARD> Cl    17.0           -0.00373800   -0.00007800   -0.51944400                   
 INPUT CARD> $END                                                                           
   60000000 WORDS OF MEMORY AVAILABLE

     BASIS OPTIONS
     -------------
     GBASIS=N311         IGAUSS=       6      POLAR=POPN311 
     NDFUNC=       1     NFFUNC=       0     DIFFSP=       T
     NPFUNC=       1      DIFFS=       T     BASNAM=        


     RUN TITLE
     ---------
 AC-Cl.inp                                                                       

 THE POINT GROUP OF THE MOLECULE IS C1      
 THE ORDER OF THE PRINCIPAL AXIS IS     0

 ATOM      ATOMIC                      COORDINATES (BOHR)
           CHARGE         X                   Y                   Z
 C           6.0     5.5819312040       -1.8339299382        2.0664531621
 C           6.0     7.7501593387       -2.6429518692       -1.9484794584
 C           6.0     4.7604144048       -5.7460539061       -0.2037294690
 H           1.0     2.8954438276       -4.4972020309        2.9298689659
 H           1.0     8.0624252198        0.5268556054        0.2683618772
 H           1.0     6.6759672776       -6.0120026032       -3.5309530081
 N           7.0     6.4972237656       -4.9441997058       -1.9636029355
 N           7.0     4.4511550778       -4.1698051138        1.8230885802
 N           7.0     7.3095659452       -1.2520700785        0.2028299594
 O           8.0     9.1403589382       -1.9950309684       -3.6322083059
 O           8.0     3.6599022403       -7.7515728537       -0.4427098866
 O           8.0     5.1813962220       -0.4497566748        3.8443546145
 C           6.0     1.9862135069        5.6580172415        2.1414355996
 C           6.0     3.1756694046        7.9891510946       -1.6819184900
 C           6.0     6.1625873083        5.0343093998        0.3124605229
 H           1.0     4.6152740004        3.0041314177        3.2089115744
 H           1.0    -0.2880962857        7.9977606862        0.0767568902
 H           1.0     6.7702835017        7.1350988831       -2.8524090976
 N           7.0     5.5241282655        6.8431721228       -1.4413998355
 N           7.0     4.3640443789        4.5829577962        2.1151570700
 N           7.0     1.5449624888        7.4002709028        0.2537353981
 O           8.0     2.6836508978        9.4109790380       -3.3908600617
 O           8.0     8.2061237633        3.9798611959        0.2570537569
 O           8.0     0.4469787776        5.1848959946        3.7651599778
 C           6.0    -4.7614235185        5.7563075593       -0.1969377938
 C           6.0    -5.5780704938        1.8372577457        2.0630667731
 C           6.0    -7.7393160909        2.6494468574       -1.9548591733
 H           1.0    -6.6701903853        6.0250417125       -3.5273417417
 H           1.0    -2.8995558713        4.5048232958        2.9373466116
 H           1.0    -8.0507051392       -0.5249205260        0.2557271693
 N           7.0    -7.3001286536        1.2553638709        0.1946172103
 N           7.0    -6.4924181925        4.9545459556       -1.9616300616
 N           7.0    -4.4527027634        4.1763700219        1.8271099171
 O           8.0    -5.1783764399        0.4508413775        3.8394640036
 O           8.0    -9.1237709235        2.0019322477       -3.6435447721
 O           8.0    -3.6646794676        7.7648840835       -0.4293381855
 CL         17.0    -0.0070637957       -0.0001473986       -0.9816068260

          INTERNUCLEAR DISTANCES (ANGS.)
          ------------------------------

                1 C          2 C          3 C          4 H          5 H     

   1 C       0.0000000    2.4522906 *  2.4326810 *  2.0532977 *  2.0467117 *
   2 C       2.4522906 *  0.0000000    2.4600749 *  3.7718420    2.0535606 *
   3 C       2.4326810 *  2.4600749 *  0.0000000    2.0397147 *  3.7596001  
   4 H       2.0532977 *  3.7718420    2.0397147 *  0.0000000    4.0654616  
   5 H       2.0467117 *  2.0535606 *  3.7596001    4.0654616    0.0000000  
   6 H       3.7412555    2.0500831 *  2.0365067 *  4.0415148    4.0686032  
   7 N       2.7370739 *  1.3865876 *  1.3755180 *  3.2240183    3.2346527  
   8 N       1.3793362 *  2.7719714 *  1.3685339 *  1.0250737 *  3.2412730  
   9 N       1.3795575 *  1.3755359 *  2.7425146 *  3.2384652    1.0227873 *
  10 O       3.5562563    1.2052468 *  3.5501663    4.9731593    2.5232546 *
  11 O       3.5501678    3.5535958    1.2171474 *  2.5128741 *  4.9759606  
  12 O       1.2110297 *  3.5484709    3.5346099    2.5069644 *  2.4844195 *
  13 C       4.3977170    5.7691622    6.3335427    5.4115148    4.3236590  
  14 C       5.7075957    6.1265523    7.3582723    7.0453373    4.8317630  
  15 C       3.7637251    4.3176640    5.7592569    5.5089045    2.5885623 *
  16 H       2.6798779 *  4.3738264    4.9706881    4.0752037    2.7326551 *
  17 H       6.1502658    7.1378126    7.7494855    6.9883315    5.9301470  
  18 H       5.4495203    5.2221918    7.0398312    7.1734177    3.9272554  
  19 N       4.9528411    5.1631782    6.7062376    6.5801666    3.7141341  
  20 N       3.4563851    4.7388018    5.6058538    4.8865112    3.0646919  
  21 N       5.4186698    6.3549879    7.1658936    6.4926265    5.0124392  
  22 O       6.7897849    6.9611898    8.2695082    8.0850590    5.8269304  
  23 O       3.5085880    3.7017427    5.4656263    5.4791663    1.8288434 *
  24 O       4.6890377    6.4215463    6.5635788    5.3032885    5.0734815  
  25 C       6.8939353    8.0280769    7.9017657    6.9710742    7.3327770  
  26 C       6.2169492    7.7376950    6.8900676    5.6171902    7.3133989  
  27 C       7.7362610    8.6619280    8.0217782    7.2563550    8.5186548  
  28 H       8.2519158    8.9425226    8.8589996    8.2645652    8.5603703  
  29 H       5.6220910    7.2630116    6.9727409    5.6653741    6.3305334  
  30 H       7.3103306    8.5164975    7.3247789    6.3224664    8.5448504  
  31 N       7.0798096    8.3048953    7.3826434    6.3616551    8.1387431  
  32 N       7.6337147    8.5421266    8.2697266    7.5097366    8.1366190  
  33 N       6.1910316    7.6624440    7.2452914    6.0438016    6.9476979  
  34 O       5.8961832    7.6725023    6.5568561    5.0340604    7.2572059  
  35 O       8.5911986    9.3047618    8.6084342    8.0238007    9.3597709  
  36 O       7.1754955    8.2138364    8.4266979    7.5707169    7.3018949  
  37 CL      3.5057860    4.3667150    3.9723339    3.5080777    4.3301060  

                6 H          7 N          8 N          9 N         10 O     

   1 C       3.7412555    2.7370739 *  1.3793362 *  1.3795575 *  3.5562563  
   2 C       2.0500831 *  1.3865876 *  2.7719714 *  1.3755359 *  1.2052468 *
   3 C       2.0365067 *  1.3755180 *  1.3685339 *  2.7425146 *  3.5501663  
   4 H       4.0415148    3.2240183    1.0250737 *  3.2384652    4.9731593  
   5 H       4.0686032    3.2346527    3.2412730    1.0227873 *  2.5232546 *
   6 H       0.0000000    1.0080429 *  3.2192615    3.2188395    2.4944149 *
   7 N       1.0080429 *  0.0000000    2.3142124 *  2.3057287 *  2.2741083 *
   8 N       3.2192615    2.3142124 *  0.0000000    2.3253067 *  3.9768837  
   9 N       3.2188395    2.3057287 *  2.3253067 *  0.0000000    2.2829146 *
  10 O       2.4944149 *  2.2741083 *  3.9768837    2.2829146 *  0.0000000  
  11 O       2.4628070 *  2.2603274 *  2.2815447 *  3.9593034    4.5319971  
  12 O       4.9519084    3.9480946    2.2734633 *  2.2719839 *  4.5509321  
  13 C       7.3010957    6.4725875    5.3643900    4.7285350    6.3299400  
  14 C       7.6995439    7.0677091    6.7301726    5.4492808    6.2403673  
  15 C       6.1951356    5.4189169    5.0181720    3.3820242    4.5472051  
  16 H       6.0558528    5.1161509    3.8674425    3.1042002    5.0831032  
  17 H       8.4963395    7.8077942    6.9714927    6.3346680    7.5304744  
  18 H       6.9665857    6.4109991    6.5890428    4.7322151    5.0086177  
  19 N       6.9188480    6.2649255    6.1049219    4.4722280    5.1846031  
  20 N       6.4697569    5.5991221    4.6345702    3.6038736    5.2683130  
  21 N       7.8585967    7.1356062    6.3672027    5.5018212    6.7158056  
  22 O       8.4308180    7.8961253    7.7546955    6.4380304    6.9369545  
  23 O       5.7123628    4.9497317    4.8201430    2.8091219 *  3.8048724  
  24 O       7.8025225    6.9405539    5.4819162    5.3239500    7.1359953  
  25 C       8.8615102    8.2724318    7.2456680    7.3892921    8.6167199  
  26 C       8.2501667    7.6321774    6.1877038    7.0817994    8.5941181  
  27 C       8.9383218    8.5383469    7.6572272    8.3056608    9.3067235  
  28 H       9.5106325    9.1066213    8.4709085    8.5704519    9.3816132  
  29 H       8.2682683    7.5136239    6.0456897    6.3687437    8.0317655  
  30 H       8.5543904    8.1310575    6.9408675    8.1374570    9.3592585  
  31 N       8.5659029    8.0855000    6.9032191    7.8441575    9.0966061  
  32 N       9.1063754    8.6422271    7.8013663    8.0896947    9.0961732  
  33 N       8.4727718    7.8034392    6.4580732    6.9088992    8.4114496  
  34 O       8.1399926    7.4668709    5.7518432    6.9415817    8.6441450  
  35 O       9.3750669    9.0902491    8.4046449    9.0956578    9.8936941  
  36 O       9.2621378    8.6490789    7.7299195    7.5236121    8.6869459  
  37 CL      4.9444662    4.3545123    3.5548770    3.9777544    5.1491038  

               11 O         12 O         13 C         14 C         15 C     

   1 C       3.5501678    1.2110297 *  4.3977170    5.7075957    3.7637251  
   2 C       3.5535958    3.5484709    5.7691622    6.1265523    4.3176640  
   3 C       1.2171474 *  3.5346099    6.3335427    7.3582723    5.7592569  
   4 H       2.5128741 *  2.5069644 *  5.4115148    7.0453373    5.5089045  
   5 H       4.9759606    2.4844195 *  4.3236590    4.8317630    2.5885623 *
   6 H       2.4628070 *  4.9519084    7.3010957    7.6995439    6.1951356  
   7 N       2.2603274 *  3.9480946    6.4725875    7.0677091    5.4189169  
   8 N       2.2815447 *  2.2734633 *  5.3643900    6.7301726    5.0181720  
   9 N       3.9593034    2.2719839 *  4.7285350    5.4492808    3.3820242  
  10 O       4.5319971    4.5509321    6.3299400    6.2403673    4.5472051  
  11 O       0.0000000    4.5524742    7.2806818    8.3593343    6.9059658  
  12 O       4.5524742    0.0000000    3.7573086    5.4424999    3.4906447  
  13 C       7.2806818    3.7573086    0.0000000    2.4518117 *  2.4351504 *
  14 C       8.3593343    5.4424999    2.4518117 *  0.0000000    2.4611189 *
  15 C       6.9059658    3.4906447    2.4351504 *  2.4611189 *  0.0000000  
  16 H       6.0319765    1.8823858 *  2.0559455 *  3.7732639    2.0430100 *
  17 H       8.5964522    5.6863953    2.0433220 *  2.0556807 *  3.7586085  
  18 H       8.1481976    5.4199025    3.7421319    2.0509086 *  2.0357175 *
  19 N       7.8038718    4.7697478    2.7373425 *  1.3886619 *  1.3754171 *
  20 N       6.6764292    2.8490386 *  1.3809927 *  2.7716045 *  1.3685336 *
  21 N       8.1041276    4.9567592    1.3792721 *  1.3751219 *  2.7457967 *
  22 O       9.2295224    6.6056323    3.5568206    1.2048703 *  3.5487567  
  23 O       6.6681445    3.4146992    3.5519734    3.5553265    1.2172195 *
  24 O       7.3967788    3.8947694    1.2101357 *  3.5490503    3.5344917  
  25 C       8.4244281    6.5606657    3.7793873    4.4333623    5.7996180  
  26 C       7.1696141    5.8966956    4.4846870    5.9986079    6.5054118  
  27 C       8.2049779    7.6718064    5.8069109    6.4317102    7.5598527  
  28 H       9.2571370    8.1418529    5.4790439    5.4018674    7.1076565  
  29 H       7.5705740    5.0389322    2.6896614 *  4.4396209    5.0004540  
  30 H       7.2913375    7.2551803    6.3175066    7.5261465    8.0762563  
  31 N       7.5145661    6.9404271    5.5351437    6.6644328    7.3997645  
  32 N       8.6439477    7.4685995    4.9983366    5.3642754    6.8041374  
  33 N       7.7274785    5.7553029    3.5003274    4.8799968    5.6923980  
  34 O       6.7712315    5.5028325    4.7722673    6.6327225    6.7366860  
  35 O       8.6759010    8.6422474    6.9049969    7.3128199    8.5083743  
  36 O       9.0798260    6.7767305    3.4692546    3.6818579    5.4116356  
  37 CL      4.5466657    3.7572393    3.5789512    4.5659478    4.2691507  

               16 H         17 H         18 H         19 N         20 N     

   1 C       2.6798779 *  6.1502658    5.4495203    4.9528411    3.4563851  
   2 C       4.3738264    7.1378126    5.2221918    5.1631782    4.7388018  
   3 C       4.9706881    7.7494855    7.0398312    6.7062376    5.6058538  
   4 H       4.0752037    6.9883315    7.1734177    6.5801666    4.8865112  
   5 H       2.7326551 *  5.9301470    3.9272554    3.7141341    3.0646919  
   6 H       6.0558528    8.4963395    6.9665857    6.9188480    6.4697569  
   7 N       5.1161509    7.8077942    6.4109991    6.2649255    5.5991221  
   8 N       3.8674425    6.9714927    6.5890428    6.1049219    4.6345702  
   9 N       3.1042002    6.3346680    4.7322151    4.4722280    3.6038736  
  10 O       5.0831032    7.5304744    5.0086177    5.1846031    5.2683130  
  11 O       6.0319765    8.5964522    8.1481976    7.8038718    6.6764292  
  12 O       1.8823858 *  5.6863953    5.4199025    4.7697478    2.8490386 *
  13 C       2.0559455 *  2.0433220 *  3.7421319    2.7373425 *  1.3809927 *
  14 C       3.7732639    2.0556807 *  2.0509086 *  1.3886619 *  2.7716045 *
  15 C       2.0430100 *  3.7586085    2.0357175 *  1.3754171 *  1.3685336 *
  16 H       0.0000000    4.0574393    4.0456480    3.2270982    1.0250353 *
  17 H       4.0574393    0.0000000    4.0696766    3.2370698    3.2387363  
  18 H       4.0456480    4.0696766    0.0000000    1.0080891 *  3.2179949  
  19 N       3.2270982    3.2370698    1.0080891 *  0.0000000    2.3129018 *
  20 N       1.0250353 *  3.2387363    3.2179949    2.3129018 *  0.0000000  
  21 N       3.2399273    1.0245314 *  3.2198350    2.3076984 *  2.3277404 *
  22 O       4.9735863    2.5297127 *  2.4916397 *  2.2737595 *  3.9758695  
  23 O       2.5134368 *  4.9733596    2.4642803 *  2.2622803 *  2.2808612 *
  24 O       2.5067496 *  2.4852668 *  4.9522536    3.9470945    2.2716589 *
  25 C       5.4763260    2.6516838 *  6.3043838    5.5126590    5.0201240  
  26 C       5.4630683    4.4236512    7.5713203    6.7061454    5.4581556  
  27 C       7.0883332    4.9712422    8.0507175    7.3662144    6.8342751  
  28 H       7.1363376    4.0166008    7.1455410    6.5609848    6.6024641  
  29 H       4.0577404    2.7600186 *  6.1244217    5.1740372    3.8684988  
  30 H       7.1311918    6.1010768    8.9804063    8.2226232    7.1717459  
  31 N       6.5694959    5.1480653    8.2292107    7.4529824    6.4986389  
  32 N       6.5651992    3.8126399    7.1281483    6.4428267    6.1398485  
  33 N       4.8934369    3.1311338    6.6222763    5.7320461    4.6730670  
  34 O       5.3661933    5.1585635    8.0641984    7.1643061    5.5778750  
  35 O       8.1417994    5.9836763    8.8484427    8.2464765    7.8800427  
  36 O       5.4084726    1.8109678 *  5.6786502    4.9161680    4.7643447  
  37 CL      3.6644194    4.2717961    5.3008686    4.6626647    3.7306578  

               21 N         22 O         23 O         24 O         25 C     

   1 C       5.4186698    6.7897849    3.5085880    4.6890377    6.8939353  
   2 C       6.3549879    6.9611898    3.7017427    6.4215463    8.0280769  
   3 C       7.1658936    8.2695082    5.4656263    6.5635788    7.9017657  
   4 H       6.4926265    8.0850590    5.4791663    5.3032885    6.9710742  
   5 H       5.0124392    5.8269304    1.8288434 *  5.0734815    7.3327770  
   6 H       7.8585967    8.4308180    5.7123628    7.8025225    8.8615102  
   7 N       7.1356062    7.8961253    4.9497317    6.9405539    8.2724318  
   8 N       6.3672027    7.7546955    4.8201430    5.4819162    7.2456680  
   9 N       5.5018212    6.4380304    2.8091219 *  5.3239500    7.3892921  
  10 O       6.7158056    6.9369545    3.8048724    7.1359953    8.6167199  
  11 O       8.1041276    9.2295224    6.6681445    7.3967788    8.4244281  
  12 O       4.9567592    6.6056323    3.4146992    3.8947694    6.5606657  
  13 C       1.3792721 *  3.5568206    3.5519734    1.2101357 *  3.7793873  
  14 C       1.3751219 *  1.2048703 *  3.5553265    3.5490503    4.4333623  
  15 C       2.7457967 *  3.5487567    1.2172195 *  3.5344917    5.7996180  
  16 H       3.2399273    4.9735863    2.5134368 *  2.5067496 *  5.4763260  
  17 H       1.0245314 *  2.5297127 *  4.9733596    2.4852668 *  2.6516838 *
  18 H       3.2198350    2.4916397 *  2.4642803 *  4.9522536    6.3043838  
  19 N       2.3076984 *  2.2737595 *  2.2622803 *  3.9470945    5.5126590  
  20 N       2.3277404 *  3.9758695    2.2808612 *  2.2716589 *  5.0201240  
  21 N       0.0000000    2.2836089 *  3.9624842    2.2726026 *  3.4569585  
  22 O       2.2836089 *  0.0000000    4.5306357    4.5543413    4.7030402  
  23 O       3.9624842    4.5306357    0.0000000    4.5510243    6.9303868  
  24 O       2.2726026 *  4.5543413    4.5510243    0.0000000    3.4761824  
  25 C       3.4569585    4.7030402    6.9303868    3.4761824    0.0000000  
  26 C       4.8775790    6.5959055    7.4434841    3.7569729    2.4326897 *
  27 C       5.6412888    6.6182846    8.5478035    5.4523889    2.4600036 *
  28 H       4.8406425    5.2646500    8.1947182    5.4105760    2.0362806 *
  29 H       3.1457854    5.1656147    6.0519852    1.8594439 *  2.0396679 *
  30 H       6.5857698    7.9771798    8.9269166    5.7270758    3.7596956  
  31 N       5.6993892    7.0808100    8.3313181    4.9699766    2.7423859 *
  32 N       4.5977221    5.4508529    7.8831374    4.7627251    1.3751792 *
  33 N       3.6982272    5.4367879    6.7508911    2.8388790 *  1.3685428 *
  34 O       5.4573367    7.3776708    7.5661705    3.8908534    3.5345856  
  35 O       6.6548689    7.3776691    9.4581033    6.6225304    3.5500067  
  36 O       2.7871069 *  3.8079272    6.6033497    3.3948231    1.2172500 *
  37 CL      4.0543766    5.3342995    4.8739264    3.7277007    3.9725818  

               26 C         27 C         28 H         29 H         30 H     

   1 C       6.2169492    7.7362610    8.2519158    5.6220910    7.3103306  
   2 C       7.7376950    8.6619280    8.9425226    7.2630116    8.5164975  
   3 C       6.8900676    8.0217782    8.8589996    6.9727409    7.3247789  
   4 H       5.6171902    7.2563550    8.2645652    5.6653741    6.3224664  
   5 H       7.3133989    8.5186548    8.5603703    6.3305334    8.5448504  
   6 H       8.2501667    8.9383218    9.5106325    8.2682683    8.5543904  
   7 N       7.6321774    8.5383469    9.1066213    7.5136239    8.1310575  
   8 N       6.1877038    7.6572272    8.4709085    6.0456897    6.9408675  
   9 N       7.0817994    8.3056608    8.5704519    6.3687437    8.1374570  
  10 O       8.5941181    9.3067235    9.3816132    8.0317655    9.3592585  
  11 O       7.1696141    8.2049779    9.2571370    7.5705740    7.2913375  
  12 O       5.8966956    7.6718064    8.1418529    5.0389322    7.2551803  
  13 C       4.4846870    5.8069109    5.4790439    2.6896614 *  6.3175066  
  14 C       5.9986079    6.4317102    5.4018674    4.4396209    7.5261465  
  15 C       6.5054118    7.5598527    7.1076565    5.0004540    8.0762563  
  16 H       5.4630683    7.0883332    7.1363376    4.0577404    7.1311918  
  17 H       4.4236512    4.9712422    4.0166008    2.7600186 *  6.1010768  
  18 H       7.5713203    8.0507175    7.1455410    6.1244217    8.9804063  
  19 N       6.7061454    7.3662144    6.5609848    5.1740372    8.2226232  
  20 N       5.4581556    6.8342751    6.6024641    3.8684988    7.1717459  
  21 N       4.8775790    5.6412888    4.8406425    3.1457854    6.5857698  
  22 O       6.5959055    6.6182846    5.2646500    5.1656147    7.9771798  
  23 O       7.4434841    8.5478035    8.1947182    6.0519852    8.9269166  
  24 O       3.7569729    5.4523889    5.4105760    1.8594439 *  5.7270758  
  25 C       2.4326897 *  2.4600036 *  2.0362806 *  2.0396679 *  3.7596956  
  26 C       0.0000000    2.4522306 *  3.7412093    2.0532290 *  2.0467797 *
  27 C       2.4522306 *  0.0000000    2.0502031 *  3.7716411    2.0536075 *
  28 H       3.7412093    2.0502031 *  0.0000000    4.0412288    4.0687997  
  29 H       2.0532290 *  3.7716411    4.0412288    0.0000000    4.0655054  
  30 H       2.0467797 *  2.0536075 *  4.0687997    4.0655054    0.0000000  
  31 N       1.3794372 *  1.3755150 *  3.2188433    3.2382272    1.0229028 *
  32 N       2.7370131 *  1.3868364 *  1.0080816 *  3.2236791    3.2348915  
  33 N       1.3792733 *  2.7718288 *  3.2190766    1.0251261 *  3.2412699  
  34 O       1.2110523 *  3.5485057    4.9518960    2.5068489 *  2.4846297 *
  35 O       3.5563123    1.2052759 *  2.4943830 *  4.9729556    2.5235029 *
  36 O       3.5502194    3.5536755    2.4626805 *  2.5127828 *  4.9761628  
  37 CL      3.4974657    4.3558487    4.9409664    3.5109412    4.3155223  

               31 N         32 N         33 N         34 O         35 O     

   1 C       7.0798096    7.6337147    6.1910316    5.8961832    8.5911986  
   2 C       8.3048953    8.5421266    7.6624440    7.6725023    9.3047618  
   3 C       7.3826434    8.2697266    7.2452914    6.5568561    8.6084342  
   4 H       6.3616551    7.5097366    6.0438016    5.0340604    8.0238007  
   5 H       8.1387431    8.1366190    6.9476979    7.2572059    9.3597709  
   6 H       8.5659029    9.1063754    8.4727718    8.1399926    9.3750669  
   7 N       8.0855000    8.6422271    7.8034392    7.4668709    9.0902491  
   8 N       6.9032191    7.8013663    6.4580732    5.7518432    8.4046449  
   9 N       7.8441575    8.0896947    6.9088992    6.9415817    9.0956578  
  10 O       9.0966061    9.0961732    8.4114496    8.6441450    9.8936941  
  11 O       7.5145661    8.6439477    7.7274785    6.7712315    8.6759010  
  12 O       6.9404271    7.4685995    5.7553029    5.5028325    8.6422474  
  13 C       5.5351437    4.9983366    3.5003274    4.7722673    6.9049969  
  14 C       6.6644328    5.3642754    4.8799968    6.6327225    7.3128199  
  15 C       7.3997645    6.8041374    5.6923980    6.7366860    8.5083743  
  16 H       6.5694959    6.5651992    4.8934369    5.3661933    8.1417994  
  17 H       5.1480653    3.8126399    3.1311338    5.1585635    5.9836763  
  18 H       8.2292107    7.1281483    6.6222763    8.0641984    8.8484427  
  19 N       7.4529824    6.4428267    5.7320461    7.1643061    8.2464765  
  20 N       6.4986389    6.1398485    4.6730670    5.5778750    7.8800427  
  21 N       5.6993892    4.5977221    3.6982272    5.4573367    6.6548689  
  22 O       7.0808100    5.4508529    5.4367879    7.3776708    7.3776691  
  23 O       8.3313181    7.8831374    6.7508911    7.5661705    9.4581033  
  24 O       4.9699766    4.7627251    2.8388790 *  3.8908534    6.6225304  
  25 C       2.7423859 *  1.3751792 *  1.3685428 *  3.5345856    3.5500067  
  26 C       1.3794372 *  2.7370131 *  1.3792733 *  1.2110523 *  3.5563123  
  27 C       1.3755150 *  1.3868364 *  2.7718288 *  3.5485057    1.2052759 *
  28 H       3.2188433    1.0080816 *  3.2190766    4.9518960    2.4943830 *
  29 H       3.2382272    3.2236791    1.0251261 *  2.5068489 *  4.9729556  
  30 H       1.0229028 *  3.2348915    3.2412699    2.4846297 *  2.5235029 *
  31 N       0.0000000    2.3057648 *  2.3250788 *  2.2720136 *  2.2831115 *
  32 N       2.3057648 *  0.0000000    2.3139359 *  3.9480578    2.2742793 *
  33 N       2.3250788 *  2.3139359 *  0.0000000    2.2733528 *  3.9767633  
  34 O       2.2720136 *  3.9480578    2.2733528 *  0.0000000    4.5511533  
  35 O       2.2831115 *  2.2742793 *  3.9767633    4.5511533    0.0000000  
  36 O       3.9592809    2.2601522 *  2.2816054 *  4.5524369    4.5319457  
  37 CL      3.9652507    4.3498645    3.5536092    3.7488983    5.1362530  

               36 O         37 CL    

   1 C       7.1754955    3.5057860  
   2 C       8.2138364    4.3667150  
   3 C       8.4266979    3.9723339  
   4 H       7.5707169    3.5080777  
   5 H       7.3018949    4.3301060  
   6 H       9.2621378    4.9444662  
   7 N       8.6490789    4.3545123  
   8 N       7.7299195    3.5548770  
   9 N       7.5236121    3.9777544  
  10 O       8.6869459    5.1491038  
  11 O       9.0798260    4.5466657  
  12 O       6.7767305    3.7572393  
  13 C       3.4692546    3.5789512  
  14 C       3.6818579    4.5659478  
  15 C       5.4116356    4.2691507  
  16 H       5.4084726    3.6644194  
  17 H       1.8109678 *  4.2717961  
  18 H       5.6786502    5.3008686  
  19 N       4.9161680    4.6626647  
  20 N       4.7643447    3.7306578  
  21 N       2.7871069 *  4.0543766  
  22 O       3.8079272    5.3342995  
  23 O       6.6033497    4.8739264  
  24 O       3.3948231    3.7277007  
  25 C       1.2172500 *  3.9725818  
  26 C       3.5502194    3.4974657  
  27 C       3.5536755    4.3558487  
  28 H       2.4626805 *  4.9409664  
  29 H       2.5127828 *  3.5109412  
  30 H       4.9761628    4.3155223  
  31 N       3.9592809    3.9652507  
  32 N       2.2601522 *  4.3498645  
  33 N       2.2816054 *  3.5536092  
  34 O       4.5524369    3.7488983  
  35 O       4.5319457    5.1362530  
  36 O       0.0000000    4.5515048  
  37 CL      4.5515048    0.0000000  

  * ... LESS THAN  3.000


     ATOMIC BASIS SET
     ----------------
 THE CONTRACTED PRIMITIVE FUNCTIONS HAVE BEEN UNNORMALIZED
 THE CONTRACTED BASIS FUNCTIONS ARE NOW NORMALIZED TO UNITY

  SHELL TYPE  PRIMITIVE        EXPONENT          CONTRACTION COEFFICIENT(S)

 C         

      1   S       1          4563.2400000    0.001966650249
      1   S       2           682.0240000    0.015230601932
      1   S       3           154.9730000    0.076126909656
      1   S       4            44.4553000    0.260801033080
      1   S       5            13.0290000    0.616462078191
      1   S       6             1.8277300    0.221006028032

      2   L       7            20.9642000    0.114660080729    0.040248692673
      2   L       8             4.8033100    0.919999647749    0.237593956746
      2   L       9             1.4593300   -0.003030682134    0.815853851473

      3   L      10             0.4834560    1.000000000000    1.000000000000

      4   L      11             0.1455850    1.000000000000    1.000000000000

      5   L      12             0.0438000    1.000000000000    1.000000000000

      6   D      13             0.6260000    1.000000000000

 C         

      7   S      14          4563.2400000    0.001966650249
      7   S      15           682.0240000    0.015230601932
      7   S      16           154.9730000    0.076126909656
      7   S      17            44.4553000    0.260801033080
      7   S      18            13.0290000    0.616462078191
      7   S      19             1.8277300    0.221006028032

      8   L      20            20.9642000    0.114660080729    0.040248692673
      8   L      21             4.8033100    0.919999647749    0.237593956746
      8   L      22             1.4593300   -0.003030682134    0.815853851473

      9   L      23             0.4834560    1.000000000000    1.000000000000

     10   L      24             0.1455850    1.000000000000    1.000000000000

     11   L      25             0.0438000    1.000000000000    1.000000000000

     12   D      26             0.6260000    1.000000000000

 C         

     13   S      27          4563.2400000    0.001966650249
     13   S      28           682.0240000    0.015230601932
     13   S      29           154.9730000    0.076126909656
     13   S      30            44.4553000    0.260801033080
     13   S      31            13.0290000    0.616462078191
     13   S      32             1.8277300    0.221006028032

     14   L      33            20.9642000    0.114660080729    0.040248692673
     14   L      34             4.8033100    0.919999647749    0.237593956746
     14   L      35             1.4593300   -0.003030682134    0.815853851473

     15   L      36             0.4834560    1.000000000000    1.000000000000

     16   L      37             0.1455850    1.000000000000    1.000000000000

     17   L      38             0.0438000    1.000000000000    1.000000000000

     18   D      39             0.6260000    1.000000000000

 H         

     19   S      40            33.8650000    0.025493814541
     19   S      41             5.0947900    0.190373108582
     19   S      42             1.1587900    0.852161486043

     20   S      43             0.3258400    1.000000000000

     21   S      44             0.1027410    1.000000000000

     22   S      45             0.0360000    1.000000000000

     23   P      46             0.7500000    1.000000000000

 H         

     24   S      47            33.8650000    0.025493814541
     24   S      48             5.0947900    0.190373108582
     24   S      49             1.1587900    0.852161486043

     25   S      50             0.3258400    1.000000000000

     26   S      51             0.1027410    1.000000000000

     27   S      52             0.0360000    1.000000000000

     28   P      53             0.7500000    1.000000000000

 H         

     29   S      54            33.8650000    0.025493814541
     29   S      55             5.0947900    0.190373108582
     29   S      56             1.1587900    0.852161486043

     30   S      57             0.3258400    1.000000000000

     31   S      58             0.1027410    1.000000000000

     32   S      59             0.0360000    1.000000000000

     33   P      60             0.7500000    1.000000000000

 N         

     34   S      61          6293.4800000    0.001969788147
     34   S      62           949.0440000    0.014961285923
     34   S      63           218.7760000    0.073500530843
     34   S      64            63.6916000    0.248936765774
     34   S      65            18.8282000    0.602459433142
     34   S      66             2.7202300    0.256201758938

     35   L      67            30.6331000    0.111906079519    0.038311918640
     35   L      68             7.0261400    0.921666654920    0.237403115502
     35   L      69             2.1120500   -0.002569191826    0.817592397779

     36   L      70             0.6840090    1.000000000000    1.000000000000

     37   L      71             0.2008780    1.000000000000    1.000000000000

     38   L      72             0.0639000    1.000000000000    1.000000000000

     39   D      73             0.9130000    1.000000000000

 N         

     40   S      74          6293.4800000    0.001969788147
     40   S      75           949.0440000    0.014961285923
     40   S      76           218.7760000    0.073500530843
     40   S      77            63.6916000    0.248936765774
     40   S      78            18.8282000    0.602459433142
     40   S      79             2.7202300    0.256201758938

     41   L      80            30.6331000    0.111906079519    0.038311918640
     41   L      81             7.0261400    0.921666654920    0.237403115502
     41   L      82             2.1120500   -0.002569191826    0.817592397779

     42   L      83             0.6840090    1.000000000000    1.000000000000

     43   L      84             0.2008780    1.000000000000    1.000000000000

     44   L      85             0.0639000    1.000000000000    1.000000000000

     45   D      86             0.9130000    1.000000000000

 N         

     46   S      87          6293.4800000    0.001969788147
     46   S      88           949.0440000    0.014961285923
     46   S      89           218.7760000    0.073500530843
     46   S      90            63.6916000    0.248936765774
     46   S      91            18.8282000    0.602459433142
     46   S      92             2.7202300    0.256201758938

     47   L      93            30.6331000    0.111906079519    0.038311918640
     47   L      94             7.0261400    0.921666654920    0.237403115502
     47   L      95             2.1120500   -0.002569191826    0.817592397779

     48   L      96             0.6840090    1.000000000000    1.000000000000

     49   L      97             0.2008780    1.000000000000    1.000000000000

     50   L      98             0.0639000    1.000000000000    1.000000000000

     51   D      99             0.9130000    1.000000000000

 O         

     52   S     100          8588.5000000    0.001895150083
     52   S     101          1297.2300000    0.014385900631
     52   S     102           299.2960000    0.070732003103
     52   S     103            87.3771000    0.240001010530
     52   S     104            25.6789000    0.594797026097
     52   S     105             3.7400400    0.280802012320

     53   L     106            42.1175000    0.113889012440    0.036511397380
     53   L     107             9.6283700    0.920811100576    0.237152982984
     53   L     108             2.8533200   -0.003274470358    0.819701941186

     54   L     109             0.9056610    1.000000000000    1.000000000000

     55   L     110             0.2556110    1.000000000000    1.000000000000

     56   L     111             0.0845000    1.000000000000    1.000000000000

     57   D     112             1.2920000    1.000000000000

 O         

     58   S     113          8588.5000000    0.001895150083
     58   S     114          1297.2300000    0.014385900631
     58   S     115           299.2960000    0.070732003103
     58   S     116            87.3771000    0.240001010530
     58   S     117            25.6789000    0.594797026097
     58   S     118             3.7400400    0.280802012320

     59   L     119            42.1175000    0.113889012440    0.036511397380
     59   L     120             9.6283700    0.920811100576    0.237152982984
     59   L     121             2.8533200   -0.003274470358    0.819701941186

     60   L     122             0.9056610    1.000000000000    1.000000000000

     61   L     123             0.2556110    1.000000000000    1.000000000000

     62   L     124             0.0845000    1.000000000000    1.000000000000

     63   D     125             1.2920000    1.000000000000

 O         

     64   S     126          8588.5000000    0.001895150083
     64   S     127          1297.2300000    0.014385900631
     64   S     128           299.2960000    0.070732003103
     64   S     129            87.3771000    0.240001010530
     64   S     130            25.6789000    0.594797026097
     64   S     131             3.7400400    0.280802012320

     65   L     132            42.1175000    0.113889012440    0.036511397380
     65   L     133             9.6283700    0.920811100576    0.237152982984
     65   L     134             2.8533200   -0.003274470358    0.819701941186

     66   L     135             0.9056610    1.000000000000    1.000000000000

     67   L     136             0.2556110    1.000000000000    1.000000000000

     68   L     137             0.0845000    1.000000000000    1.000000000000

     69   D     138             1.2920000    1.000000000000

 C         

     70   S     139          4563.2400000    0.001966650249
     70   S     140           682.0240000    0.015230601932
     70   S     141           154.9730000    0.076126909656
     70   S     142            44.4553000    0.260801033080
     70   S     143            13.0290000    0.616462078191
     70   S     144             1.8277300    0.221006028032

     71   L     145            20.9642000    0.114660080729    0.040248692673
     71   L     146             4.8033100    0.919999647749    0.237593956746
     71   L     147             1.4593300   -0.003030682134    0.815853851473

     72   L     148             0.4834560    1.000000000000    1.000000000000

     73   L     149             0.1455850    1.000000000000    1.000000000000

     74   L     150             0.0438000    1.000000000000    1.000000000000

     75   D     151             0.6260000    1.000000000000

 C         

     76   S     152          4563.2400000    0.001966650249
     76   S     153           682.0240000    0.015230601932
     76   S     154           154.9730000    0.076126909656
     76   S     155            44.4553000    0.260801033080
     76   S     156            13.0290000    0.616462078191
     76   S     157             1.8277300    0.221006028032

     77   L     158            20.9642000    0.114660080729    0.040248692673
     77   L     159             4.8033100    0.919999647749    0.237593956746
     77   L     160             1.4593300   -0.003030682134    0.815853851473

     78   L     161             0.4834560    1.000000000000    1.000000000000

     79   L     162             0.1455850    1.000000000000    1.000000000000

     80   L     163             0.0438000    1.000000000000    1.000000000000

     81   D     164             0.6260000    1.000000000000

 C         

     82   S     165          4563.2400000    0.001966650249
     82   S     166           682.0240000    0.015230601932
     82   S     167           154.9730000    0.076126909656
     82   S     168            44.4553000    0.260801033080
     82   S     169            13.0290000    0.616462078191
     82   S     170             1.8277300    0.221006028032

     83   L     171            20.9642000    0.114660080729    0.040248692673
     83   L     172             4.8033100    0.919999647749    0.237593956746
     83   L     173             1.4593300   -0.003030682134    0.815853851473

     84   L     174             0.4834560    1.000000000000    1.000000000000

     85   L     175             0.1455850    1.000000000000    1.000000000000

     86   L     176             0.0438000    1.000000000000    1.000000000000

     87   D     177             0.6260000    1.000000000000

 H         

     88   S     178            33.8650000    0.025493814541
     88   S     179             5.0947900    0.190373108582
     88   S     180             1.1587900    0.852161486043

     89   S     181             0.3258400    1.000000000000

     90   S     182             0.1027410    1.000000000000

     91   S     183             0.0360000    1.000000000000

     92   P     184             0.7500000    1.000000000000

 H         

     93   S     185            33.8650000    0.025493814541
     93   S     186             5.0947900    0.190373108582
     93   S     187             1.1587900    0.852161486043

     94   S     188             0.3258400    1.000000000000

     95   S     189             0.1027410    1.000000000000

     96   S     190             0.0360000    1.000000000000

     97   P     191             0.7500000    1.000000000000

 H         

     98   S     192            33.8650000    0.025493814541
     98   S     193             5.0947900    0.190373108582
     98   S     194             1.1587900    0.852161486043

     99   S     195             0.3258400    1.000000000000

    100   S     196             0.1027410    1.000000000000

    101   S     197             0.0360000    1.000000000000

    102   P     198             0.7500000    1.000000000000

 N         

    103   S     199          6293.4800000    0.001969788147
    103   S     200           949.0440000    0.014961285923
    103   S     201           218.7760000    0.073500530843
    103   S     202            63.6916000    0.248936765774
    103   S     203            18.8282000    0.602459433142
    103   S     204             2.7202300    0.256201758938

    104   L     205            30.6331000    0.111906079519    0.038311918640
    104   L     206             7.0261400    0.921666654920    0.237403115502
    104   L     207             2.1120500   -0.002569191826    0.817592397779

    105   L     208             0.6840090    1.000000000000    1.000000000000

    106   L     209             0.2008780    1.000000000000    1.000000000000

    107   L     210             0.0639000    1.000000000000    1.000000000000

    108   D     211             0.9130000    1.000000000000

 N         

    109   S     212          6293.4800000    0.001969788147
    109   S     213           949.0440000    0.014961285923
    109   S     214           218.7760000    0.073500530843
    109   S     215            63.6916000    0.248936765774
    109   S     216            18.8282000    0.602459433142
    109   S     217             2.7202300    0.256201758938

    110   L     218            30.6331000    0.111906079519    0.038311918640
    110   L     219             7.0261400    0.921666654920    0.237403115502
    110   L     220             2.1120500   -0.002569191826    0.817592397779

    111   L     221             0.6840090    1.000000000000    1.000000000000

    112   L     222             0.2008780    1.000000000000    1.000000000000

    113   L     223             0.0639000    1.000000000000    1.000000000000

    114   D     224             0.9130000    1.000000000000

 N         

    115   S     225          6293.4800000    0.001969788147
    115   S     226           949.0440000    0.014961285923
    115   S     227           218.7760000    0.073500530843
    115   S     228            63.6916000    0.248936765774
    115   S     229            18.8282000    0.602459433142
    115   S     230             2.7202300    0.256201758938

    116   L     231            30.6331000    0.111906079519    0.038311918640
    116   L     232             7.0261400    0.921666654920    0.237403115502
    116   L     233             2.1120500   -0.002569191826    0.817592397779

    117   L     234             0.6840090    1.000000000000    1.000000000000

    118   L     235             0.2008780    1.000000000000    1.000000000000

    119   L     236             0.0639000    1.000000000000    1.000000000000

    120   D     237             0.9130000    1.000000000000

 O         

    121   S     238          8588.5000000    0.001895150083
    121   S     239          1297.2300000    0.014385900631
    121   S     240           299.2960000    0.070732003103
    121   S     241            87.3771000    0.240001010530
    121   S     242            25.6789000    0.594797026097
    121   S     243             3.7400400    0.280802012320

    122   L     244            42.1175000    0.113889012440    0.036511397380
    122   L     245             9.6283700    0.920811100576    0.237152982984
    122   L     246             2.8533200   -0.003274470358    0.819701941186

    123   L     247             0.9056610    1.000000000000    1.000000000000

    124   L     248             0.2556110    1.000000000000    1.000000000000

    125   L     249             0.0845000    1.000000000000    1.000000000000

    126   D     250             1.2920000    1.000000000000

 O         

    127   S     251          8588.5000000    0.001895150083
    127   S     252          1297.2300000    0.014385900631
    127   S     253           299.2960000    0.070732003103
    127   S     254            87.3771000    0.240001010530
    127   S     255            25.6789000    0.594797026097
    127   S     256             3.7400400    0.280802012320

    128   L     257            42.1175000    0.113889012440    0.036511397380
    128   L     258             9.6283700    0.920811100576    0.237152982984
    128   L     259             2.8533200   -0.003274470358    0.819701941186

    129   L     260             0.9056610    1.000000000000    1.000000000000

    130   L     261             0.2556110    1.000000000000    1.000000000000

    131   L     262             0.0845000    1.000000000000    1.000000000000

    132   D     263             1.2920000    1.000000000000

 O         

    133   S     264          8588.5000000    0.001895150083
    133   S     265          1297.2300000    0.014385900631
    133   S     266           299.2960000    0.070732003103
    133   S     267            87.3771000    0.240001010530
    133   S     268            25.6789000    0.594797026097
    133   S     269             3.7400400    0.280802012320

    134   L     270            42.1175000    0.113889012440    0.036511397380
    134   L     271             9.6283700    0.920811100576    0.237152982984
    134   L     272             2.8533200   -0.003274470358    0.819701941186

    135   L     273             0.9056610    1.000000000000    1.000000000000

    136   L     274             0.2556110    1.000000000000    1.000000000000

    137   L     275             0.0845000    1.000000000000    1.000000000000

    138   D     276             1.2920000    1.000000000000

 C         

    139   S     277          4563.2400000    0.001966650249
    139   S     278           682.0240000    0.015230601932
    139   S     279           154.9730000    0.076126909656
    139   S     280            44.4553000    0.260801033080
    139   S     281            13.0290000    0.616462078191
    139   S     282             1.8277300    0.221006028032

    140   L     283            20.9642000    0.114660080729    0.040248692673
    140   L     284             4.8033100    0.919999647749    0.237593956746
    140   L     285             1.4593300   -0.003030682134    0.815853851473

    141   L     286             0.4834560    1.000000000000    1.000000000000

    142   L     287             0.1455850    1.000000000000    1.000000000000

    143   L     288             0.0438000    1.000000000000    1.000000000000

    144   D     289             0.6260000    1.000000000000

 C         

    145   S     290          4563.2400000    0.001966650249
    145   S     291           682.0240000    0.015230601932
    145   S     292           154.9730000    0.076126909656
    145   S     293            44.4553000    0.260801033080
    145   S     294            13.0290000    0.616462078191
    145   S     295             1.8277300    0.221006028032

    146   L     296            20.9642000    0.114660080729    0.040248692673
    146   L     297             4.8033100    0.919999647749    0.237593956746
    146   L     298             1.4593300   -0.003030682134    0.815853851473

    147   L     299             0.4834560    1.000000000000    1.000000000000

    148   L     300             0.1455850    1.000000000000    1.000000000000

    149   L     301             0.0438000    1.000000000000    1.000000000000

    150   D     302             0.6260000    1.000000000000

 C         

    151   S     303          4563.2400000    0.001966650249
    151   S     304           682.0240000    0.015230601932
    151   S     305           154.9730000    0.076126909656
    151   S     306            44.4553000    0.260801033080
    151   S     307            13.0290000    0.616462078191
    151   S     308             1.8277300    0.221006028032

    152   L     309            20.9642000    0.114660080729    0.040248692673
    152   L     310             4.8033100    0.919999647749    0.237593956746
    152   L     311             1.4593300   -0.003030682134    0.815853851473

    153   L     312             0.4834560    1.000000000000    1.000000000000

    154   L     313             0.1455850    1.000000000000    1.000000000000

    155   L     314             0.0438000    1.000000000000    1.000000000000

    156   D     315             0.6260000    1.000000000000

 H         

    157   S     316            33.8650000    0.025493814541
    157   S     317             5.0947900    0.190373108582
    157   S     318             1.1587900    0.852161486043

    158   S     319             0.3258400    1.000000000000

    159   S     320             0.1027410    1.000000000000

    160   S     321             0.0360000    1.000000000000

    161   P     322             0.7500000    1.000000000000

 H         

    162   S     323            33.8650000    0.025493814541
    162   S     324             5.0947900    0.190373108582
    162   S     325             1.1587900    0.852161486043

    163   S     326             0.3258400    1.000000000000

    164   S     327             0.1027410    1.000000000000

    165   S     328             0.0360000    1.000000000000

    166   P     329             0.7500000    1.000000000000

 H         

    167   S     330            33.8650000    0.025493814541
    167   S     331             5.0947900    0.190373108582
    167   S     332             1.1587900    0.852161486043

    168   S     333             0.3258400    1.000000000000

    169   S     334             0.1027410    1.000000000000

    170   S     335             0.0360000    1.000000000000

    171   P     336             0.7500000    1.000000000000

 N         

    172   S     337          6293.4800000    0.001969788147
    172   S     338           949.0440000    0.014961285923
    172   S     339           218.7760000    0.073500530843
    172   S     340            63.6916000    0.248936765774
    172   S     341            18.8282000    0.602459433142
    172   S     342             2.7202300    0.256201758938

    173   L     343            30.6331000    0.111906079519    0.038311918640
    173   L     344             7.0261400    0.921666654920    0.237403115502
    173   L     345             2.1120500   -0.002569191826    0.817592397779

    174   L     346             0.6840090    1.000000000000    1.000000000000

    175   L     347             0.2008780    1.000000000000    1.000000000000

    176   L     348             0.0639000    1.000000000000    1.000000000000

    177   D     349             0.9130000    1.000000000000

 N         

    178   S     350          6293.4800000    0.001969788147
    178   S     351           949.0440000    0.014961285923
    178   S     352           218.7760000    0.073500530843
    178   S     353            63.6916000    0.248936765774
    178   S     354            18.8282000    0.602459433142
    178   S     355             2.7202300    0.256201758938

    179   L     356            30.6331000    0.111906079519    0.038311918640
    179   L     357             7.0261400    0.921666654920    0.237403115502
    179   L     358             2.1120500   -0.002569191826    0.817592397779

    180   L     359             0.6840090    1.000000000000    1.000000000000

    181   L     360             0.2008780    1.000000000000    1.000000000000

    182   L     361             0.0639000    1.000000000000    1.000000000000

    183   D     362             0.9130000    1.000000000000

 N         

    184   S     363          6293.4800000    0.001969788147
    184   S     364           949.0440000    0.014961285923
    184   S     365           218.7760000    0.073500530843
    184   S     366            63.6916000    0.248936765774
    184   S     367            18.8282000    0.602459433142
    184   S     368             2.7202300    0.256201758938

    185   L     369            30.6331000    0.111906079519    0.038311918640
    185   L     370             7.0261400    0.921666654920    0.237403115502
    185   L     371             2.1120500   -0.002569191826    0.817592397779

    186   L     372             0.6840090    1.000000000000    1.000000000000

    187   L     373             0.2008780    1.000000000000    1.000000000000

    188   L     374             0.0639000    1.000000000000    1.000000000000

    189   D     375             0.9130000    1.000000000000

 O         

    190   S     376          8588.5000000    0.001895150083
    190   S     377          1297.2300000    0.014385900631
    190   S     378           299.2960000    0.070732003103
    190   S     379            87.3771000    0.240001010530
    190   S     380            25.6789000    0.594797026097
    190   S     381             3.7400400    0.280802012320

    191   L     382            42.1175000    0.113889012440    0.036511397380
    191   L     383             9.6283700    0.920811100576    0.237152982984
    191   L     384             2.8533200   -0.003274470358    0.819701941186

    192   L     385             0.9056610    1.000000000000    1.000000000000

    193   L     386             0.2556110    1.000000000000    1.000000000000

    194   L     387             0.0845000    1.000000000000    1.000000000000

    195   D     388             1.2920000    1.000000000000

 O         

    196   S     389          8588.5000000    0.001895150083
    196   S     390          1297.2300000    0.014385900631
    196   S     391           299.2960000    0.070732003103
    196   S     392            87.3771000    0.240001010530
    196   S     393            25.6789000    0.594797026097
    196   S     394             3.7400400    0.280802012320

    197   L     395            42.1175000    0.113889012440    0.036511397380
    197   L     396             9.6283700    0.920811100576    0.237152982984
    197   L     397             2.8533200   -0.003274470358    0.819701941186

    198   L     398             0.9056610    1.000000000000    1.000000000000

    199   L     399             0.2556110    1.000000000000    1.000000000000

    200   L     400             0.0845000    1.000000000000    1.000000000000

    201   D     401             1.2920000    1.000000000000

 O         

    202   S     402          8588.5000000    0.001895150083
    202   S     403          1297.2300000    0.014385900631
    202   S     404           299.2960000    0.070732003103
    202   S     405            87.3771000    0.240001010530
    202   S     406            25.6789000    0.594797026097
    202   S     407             3.7400400    0.280802012320

    203   L     408            42.1175000    0.113889012440    0.036511397380
    203   L     409             9.6283700    0.920811100576    0.237152982984
    203   L     410             2.8533200   -0.003274470358    0.819701941186

    204   L     411             0.9056610    1.000000000000    1.000000000000

    205   L     412             0.2556110    1.000000000000    1.000000000000

    206   L     413             0.0845000    1.000000000000    1.000000000000

    207   D     414             1.2920000    1.000000000000

 CL        

    208   S     415        105818.8000000    0.000743000275
    208   S     416         15872.0000000    0.005753002128
    208   S     417          3619.7000000    0.029676010978
    208   S     418          1030.8000000    0.118010043656
    208   S     419           339.9100000    0.365230135112
    208   S     420           124.5380000    0.581221215015

    209   S     421           124.5380000    0.137547961709
    209   S     422            49.5140000    0.622880826601
    209   S     423            20.8060000    0.290142919229

    210   S     424             6.4648000    1.000000000000

    211   S     425             2.5254000    1.000000000000

    212   S     426             0.5378000    1.000000000000

    213   S     427             0.1935000    1.000000000000

    214   P     428           589.7800000    0.002759999618
    214   P     429           139.8500000    0.021535997016
    214   P     430            44.7950000    0.095915986708
    214   P     431            16.6120000    0.262314963650
    214   P     432             6.5995000    0.726810899282

    215   P     433             6.5995000   -1.564657110393
    215   P     434             2.7141000    1.496125206176

    216   P     435             0.9528000    1.000000000000

    217   P     436             0.3580000    1.000000000000

    218   P     437             0.1250000    1.000000000000

    219   L     438             0.0483000    1.000000000000    1.000000000000

    220   D     439             0.7500000    1.000000000000

 TOTAL NUMBER OF BASIS SET SHELLS             =  220
 NUMBER OF CARTESIAN GAUSSIAN BASIS FUNCTIONS =  715
 NOTE: THIS RUN WILL RESTRICT THE MO VARIATION SPACE TO SPHERICAL HARMONICS.
 THE NUMBER OF ORBITALS KEPT IN THE VARIATIONAL SPACE WILL BE PRINTED LATER.
 NUMBER OF ELECTRONS                          =  216
 CHARGE OF MOLECULE                           =   -1
 SPIN MULTIPLICITY                            =    1
 NUMBER OF OCCUPIED ORBITALS (ALPHA)          =  108
 NUMBER OF OCCUPIED ORBITALS (BETA )          =  108
 TOTAL NUMBER OF ATOMS                        =   37
 THE NUCLEAR REPULSION ENERGY IS     2939.4584400146

     LEBEDEV GRID-BASED DFT OPTIONS
     ------------------------------
     DFTTYP=BLYP    
     NRAD  =      96     NLEB  =     302
     NRAD0 =      24     NLEB0 =     110
     SWOFF =    5.00E-03 (PURE SCF -> DFT)
     SWITCH=    3.00E-04 (COARSE -> TIGHT GRID)
     THRESH=    0.00E+00 GTHRE=    1.00E+00

 GRIMME'S EMPIRICAL DISPERSION CORRECTION= T
  ________________________________

           DFTD3 V1.2             
   S.GRIMME, UNIVERSITY MUENSTER  
   WED MAR 10 08:38:00 CET 2010   
  ________________________________

 PLEASE CITE DFT-D3 WORK DONE WITH THIS CODE AS:
 S. GRIMME, J. ANTONY, S. EHRLICH AND H. KRIEG,
 J. CHEM. PHYS, 132 (2010), 154104.

 DFT-D3 PARAMETERS WILL BE LOADED AND PRINTED
 BEFORE THE RESULTS

 IMPLEMENTATION OF DFT-D IN GAMESS BY:
 R.PEVERATI AND K.K.BALDRIDGE, 
 J.CHEM.THEORY COMPUT. 4,(2008), 2030-2048


     $CONTRL OPTIONS
     ---------------
 SCFTYP=RHF          RUNTYP=LMOEDA       EXETYP=RUN     
 MPLEVL=       0     CITYP =NONE         CCTYP =NONE         VBTYP =NONE    
 DFTTYP=BLYP         TDDFT =NONE    
 MULT  =       1     ICHARG=      -1     NZVAR =       0     COORD =UNIQUE  
 PP    =NONE         RELWFN=NONE         LOCAL =NONE         NUMGRD=       F
 ISPHER=       1     NOSYM =       1     MAXIT =      90     UNITS =ANGS    
 PLTORB=       F     MOLPLT=       F     AIMPAC=       F     FRIEND=        
 NPRINT=      -5     IREST =       0     GEOM  =INPUT   
 NORMF =       0     NORMP =       0     ITOL  =      20     ICUT  =       9
 INTTYP=BEST         GRDTYP=BEST         QMTTOL= 1.0E-06

     $SYSTEM OPTIONS
     ---------------
  REPLICATED MEMORY=    60000000 WORDS (ON EVERY NODE).
 DISTRIBUTED MEMDDI=        5000 MILLION WORDS IN AGGREGATE,
 MEMDDI DISTRIBUTED OVER   8 PROCESSORS IS   625000000 WORDS/PROCESSOR.
 TOTAL MEMORY REQUESTED ON EACH PROCESSOR=   685000000 WORDS.
 TIMLIM=      525600.00 MINUTES, OR     365.0 DAYS.
 PARALL= T  BALTYP=  DLB     KDIAG=    0  COREFL= F
 MXSEQ2=     300 MXSEQ3=     150  mem10=         0

          ----------------
          PROPERTIES INPUT
          ----------------

     MOMENTS            FIELD           POTENTIAL          DENSITY
 IEMOM =       1   IEFLD =       0   IEPOT =       0   IEDEN =       0
 WHERE =COMASS     WHERE =NUCLEI     WHERE =NUCLEI     WHERE =NUCLEI  
 OUTPUT=BOTH       OUTPUT=BOTH       OUTPUT=BOTH       OUTPUT=BOTH    
 IEMINT=       0   IEFINT=       0                     IEDINT=       0
                                                       MORB  =       0
          EXTRAPOLATION IN EFFECT
          DIIS IN EFFECT
 ORBITAL PRINTING OPTION: NPREO=     1   715     2     1

     -------------------------------
     INTEGRAL TRANSFORMATION OPTIONS
     -------------------------------
     NWORD  =            0
     CUTOFF = 1.0E-09     MPTRAN =       0
     DIRTRF =       F     AOINTS =DUP     

          -----------------------------
          LOCALIZATION INPUT PARAMETERS
          -----------------------------
           LOCAL=RUEDNBRG      NOUTA=       0
          PRTLOC=       F      NOUTB=       0
          MAXLOC=     250     CVGLOC=1.00E-06
           FCORE=       F     SYMLOC=       F
          MOIDON=       F     EDCOMP=       F
          DIPDCM=       F      NPROT=       0
          QADDCM=       F     DEPRNT=       F
          POLNUM=       F     ORIENT=       F
          POLDYN=       F      VMTOL=1.50E-01
          NPRDTL=       2

          ----------------------
          INTEGRAL INPUT OPTIONS
          ----------------------
 NOPK  =       1 NORDER=       0 SCHWRZ=       T

     ------------------------------------------
     THE POINT GROUP IS C1 , NAXIS= 1, ORDER= 1
     ------------------------------------------

 -- VARIATIONAL SPACE WILL BE RESTRICTED TO PURE SPHERICAL HARMONICS ONLY --
 AFTER EXCLUDING CONTAMINANT COMBINATIONS FROM THE CARTESIAN GAUSSIAN BASIS
 SET, THE NUMBER OF SPHERICAL HARMONICS KEPT IN THE VARIATION SPACE IS  687

     DIMENSIONS OF THE SYMMETRY SUBSPACES ARE
 A   =  687

 ..... DONE SETTING UP THE RUN .....
 CPU     0: STEP CPU TIME=     0.15 TOTAL CPU TIME=        0.2 (    0.0 MIN)
 TOTAL WALL CLOCK TIME=        0.2 SECONDS, CPU UTILIZATION IS  93.75%
 ...... END OF ONE-ELECTRON INTEGRALS ......
 CPU     0: STEP CPU TIME=     0.13 TOTAL CPU TIME=        0.3 (    0.0 MIN)
 TOTAL WALL CLOCK TIME=        0.3 SECONDS, CPU UTILIZATION IS  93.33%

          -------------
          GUESS OPTIONS
          -------------
          GUESS =HUCKEL            NORB  =       0          NORDER=       0
          MIX   =       F          PRTMO =       F          PUNMO =       F
          TOLZ  = 1.0E-08          TOLE  = 1.0E-05
          SYMDEN=       F          PURIFY=       F

 INITIAL GUESS ORBITALS GENERATED BY HUCKEL   ROUTINE.
 HUCKEL GUESS REQUIRES   3792835 WORDS.

 SYMMETRIES FOR INITIAL GUESS ORBITALS FOLLOW.   BOTH SET(S).
   108 ORBITALS ARE OCCUPIED (   32 CORE ORBITALS).
    33=A       34=A       35=A       36=A       37=A       38=A       39=A   
    40=A       41=A       42=A       43=A       44=A       45=A       46=A   
    47=A       48=A       49=A       50=A       51=A       52=A       53=A   
    54=A       55=A       56=A       57=A       58=A       59=A       60=A   
    61=A       62=A       63=A       64=A       65=A       66=A       67=A   
    68=A       69=A       70=A       71=A       72=A       73=A       74=A   
    75=A       76=A       77=A       78=A       79=A       80=A       81=A   
    82=A       83=A       84=A       85=A       86=A       87=A       88=A   
    89=A       90=A       91=A       92=A       93=A       94=A       95=A   
    96=A       97=A       98=A       99=A      100=A      101=A      102=A   
   103=A      104=A      105=A      106=A      107=A      108=A      109=A   
   110=A      111=A      112=A      113=A      114=A      115=A      116=A   
   117=A      118=A   
 ...... END OF INITIAL ORBITAL SELECTION ......
 CPU     0: STEP CPU TIME=     1.76 TOTAL CPU TIME=        2.0 (    0.0 MIN)
 TOTAL WALL CLOCK TIME=        3.3 SECONDS, CPU UTILIZATION IS  61.26%


          ***************************************
          *  LMO ENERGY DECOMPOSITION ANALYSIS  *
          *      - PEIFENG SU AND HUI LI -      *
          ***************************************



 =======================================================================
 LMOEDA PERFORMS THE FOLLOWING CALCULATIONS:
 1. HF/DFT/MP2/CCSD/CCSD(T) FOR MONOMERS WITH
         MONOMERS OWN BASIS FUNCTIONS
         ALL BASIS FUNCTIONS (IF SUPBAS=.T.)
 2. ELECTROSTATIC ENERGY WITH HF/DFT DENSITY OF THE MONOMERS
 3. EXCHANGE ENERGY WITH HF/DFT MO OF THE MONOMERS
 4. SUPER MOLECULE ENERGY WITH ANTISYMMETRIZED HF/DFT MO OF THE MONOMERS
 5. HF/DFT/MP2/CCSD/CCSD(T) FOR THE SUPER MOLECULE
 =======================================================================

          -------------------------
          MONOMER  1 WITH OWN BASIS
          -------------------------

     ------------------------------------------
     THE POINT GROUP IS C1 , NAXIS= 1, ORDER= 1
     ------------------------------------------

 -- VARIATIONAL SPACE WILL BE RESTRICTED TO PURE SPHERICAL HARMONICS ONLY --
 AFTER EXCLUDING CONTAMINANT COMBINATIONS FROM THE CARTESIAN GAUSSIAN BASIS
 SET, THE NUMBER OF SPHERICAL HARMONICS KEPT IN THE VARIATION SPACE IS  657

     DIMENSIONS OF THE SYMMETRY SUBSPACES ARE
 A   =  657
 ...... END OF ONE-ELECTRON INTEGRALS ......
 CPU     0: STEP CPU TIME=     0.22 TOTAL CPU TIME=        2.3 (    0.0 MIN)
 TOTAL WALL CLOCK TIME=        3.6 SECONDS, CPU UTILIZATION IS  62.78%

          -------------
          GUESS OPTIONS
          -------------
          GUESS =HUCKEL            NORB  =       0          NORDER=       0
          MIX   =       F          PRTMO =       F          PUNMO =       F
          TOLZ  = 1.0E-08          TOLE  = 1.0E-05
          SYMDEN=       F          PURIFY=       F

 INITIAL GUESS ORBITALS GENERATED BY HUCKEL   ROUTINE.
 HUCKEL GUESS REQUIRES   3469176 WORDS.
 ddikick.x: Sending kill signal to DDI processes.
 ddikick.x: Execution terminated due to error(s).
