----- GAMESS execution script 'rungms' -----
This job is running on host quitex-server
under operating system Linux at jue ago 16 15:26:07 ART 2018
Available scratch disk space (Kbyte units) at beginning of the job is
S.ficheros     bloques de 1K    Usados Disponibles Uso% Montado en
/dev/sda2          480487128 289385708   166670984  64% /
GAMESS temporary binary files will be written to /scr/nicolai
GAMESS supplementary output files will be written to /home/nicolai/scr
Copying input file AC4-1-Cl-2mol.inp to your run's scratch directory...

 Distributed Data Interface kickoff program.
 Initiating 8 compute processes on 1 nodes to run the following command:
 /usr/local/gamess/gamess.00.x AC4-1-Cl-2mol 

          ******************************************************
          *         GAMESS VERSION =  5 DEC 2014 (R1)          *
          *             FROM IOWA STATE UNIVERSITY             *
          * M.W.SCHMIDT, K.K.BALDRIDGE, J.A.BOATZ, S.T.ELBERT, *
          *   M.S.GORDON, J.H.JENSEN, S.KOSEKI, N.MATSUNAGA,   *
          *          K.A.NGUYEN, S.J.SU, T.L.WINDUS,           *
          *       TOGETHER WITH M.DUPUIS, J.A.MONTGOMERY       *
          *         J.COMPUT.CHEM.  14, 1347-1363(1993)        *
          **************** 64 BIT LINUX VERSION ****************

  SINCE 1993, STUDENTS AND POSTDOCS WORKING AT IOWA STATE UNIVERSITY
  AND ALSO IN THEIR VARIOUS JOBS AFTER LEAVING ISU HAVE MADE IMPORTANT
  CONTRIBUTIONS TO THE CODE:
     IVANA ADAMOVIC, CHRISTINE AIKENS, YURI ALEXEEV, POOJA ARORA,
     ANDREY ASADCHEV, ROB BELL, PRADIPTA BANDYOPADHYAY, JONATHAN BENTZ,
     BRETT BODE, KURT BRORSEN, CALEB CARLIN, GALINA CHABAN, WEI CHEN,
     CHEOL HO CHOI, PAUL DAY, ALBERT DEFUSCO, NUWAN DESILVA, TIM DUDLEY,
     DMITRI FEDOROV, GRAHAM FLETCHER, MARK FREITAG, KURT GLAESEMANN,
     DAN KEMP, GRANT MERRILL, NORIYUKI MINEZAWA, JONATHAN MULLIN,
     TAKESHI NAGATA, SEAN NEDD, HEATHER NETZLOFF, BOSILJKA NJEGIC, RYAN OLSON,
     MIKE PAK, SPENCER PRUITT, LUKE ROSKOP, JIM SHOEMAKER, LYUDMILA SLIPCHENKO,
     TONY SMITH, SAROM SOK, JIE SONG, TETSUYA TAKETSUGU, SIMON WEBB,
     PENG XU, SOOHAENG YOO, FEDERICO ZAHARIEV

  ADDITIONAL CODE HAS BEEN PROVIDED BY COLLABORATORS IN OTHER GROUPS:
     IOWA STATE UNIVERSITY:
          JOE IVANIC, AARON WEST, LAIMUTIS BYTAUTAS, KLAUS RUEDENBERG
     UNIVERSITY OF TOKYO: KIMIHIKO HIRAO, TAKAHITO NAKAJIMA,
          TAKAO TSUNEDA, MUNEAKI KAMIYA, SUSUMU YANAGISAWA,
          KIYOSHI YAGI, MAHITO CHIBA, SEIKEN TOKURA, NAOAKI KAWAKAMI
     UNIVERSITY OF AARHUS: FRANK JENSEN
     UNIVERSITY OF IOWA: VISVALDAS KAIRYS, HUI LI
     NATIONAL INST. OF STANDARDS AND TECHNOLOGY: WALT STEVENS, DAVID GARMER
     UNIVERSITY OF PISA: BENEDETTA MENNUCCI, JACOPO TOMASI
     UNIVERSITY OF MEMPHIS: HENRY KURTZ, PRAKASHAN KORAMBATH
     UNIVERSITY OF ALBERTA: TOBY ZENG, MARIUSZ KLOBUKOWSKI
     UNIVERSITY OF NEW ENGLAND: MARK SPACKMAN
     MIE UNIVERSITY: HIROAKI UMEDA
     NAT. INST. OF ADVANCED INDUSTRIAL SCIENCE AND TECHNOLOGY: KAZUO KITAURA
     MICHIGAN STATE UNIVERSITY:
          KAROL KOWALSKI, MARTA WLOCH, JEFFREY GOUR, JESSE LUTZ,
          WEI LI, PIOTR PIECUCH
     UNIVERSITY OF SILESIA: MONIKA MUSIAL, STANISLAW KUCHARSKI
     FACULTES UNIVERSITAIRES NOTRE-DAME DE LA PAIX:
          OLIVIER QUINET, BENOIT CHAMPAGNE
     UNIVERSITY OF CALIFORNIA - SANTA BARBARA: BERNARD KIRTMAN
     INSTITUTE FOR MOLECULAR SCIENCE:
          KAZUYA ISHIMURA, MICHIO KATOUDA, AND SHIGERU NAGASE
     UNIVERSITY OF NOTRE DAME: ANNA POMOGAEVA, DAN CHIPMAN
     KYUSHU UNIVERSITY:
          HARUYUKI NAKANO,
          FENG LONG GU, JACEK KORCHOWIEC, MARCIN MAKOWSKI, AND YURIKO AOKI,
          HIROTOSHI MORI AND EISAKU MIYOSHI
     PENNSYLVANIA STATE UNIVERSITY:
          TZVETELIN IORDANOV, CHET SWALINA, JONATHAN SKONE,
          SHARON HAMMES-SCHIFFER
     WASEDA UNIVERSITY:
          MASATO KOBAYASHI, TOMOKO AKAMA, TSUGUKI TOUMA,
          TAKESHI YOSHIKAWA, YASUHIRO IKABATA, HIROMI NAKAI
     NANJING UNIVERSITY: SHUHUA LI
     UNIVERSITY OF NEBRASKA:
          PEIFENG SU, DEJUN SI, NANDUN THELLAMUREGE, YALI WANG, HUI LI
     UNIVERSITY OF ZURICH: ROBERTO PEVERATI, KIM BALDRIDGE
     N. COPERNICUS UNIVERSITY AND JACKSON STATE UNIVERSITY:
          MARIA BARYSZ
     UNIVERSITY OF COPENHAGEN: CASPER STEINMANN
     TOKYO INSTITUTE OF TECHNOLOGY: HIROYA NAKATA
     NAGOYA UNIVERSITY: YOSHIO NISHIMOTO, STEPHAN IRLE


 PARALLEL VERSION RUNNING ON        8 PROCESSORS IN        1 NODES.

 EXECUTION OF GAMESS BEGUN Thu Aug 16 15:26:08 2018

            ECHO OF THE FIRST FEW INPUT CARDS -
 INPUT CARD> $CONTRL SCFTYP=RHF RUNTYP=EDA COORD=UNIQUE DFTTYP=BLYP $END                    
 INPUT CARD> $DFT DC=.TRUE. IDCVER=3 $END                                                   
 INPUT CARD> $CONTRL NOSYM=1 ICHARG=-1 MULT=1 ISPHER=1 nprint=-5 MAXIT=90 $END              
 INPUT CARD> $SCF CONV=1.0d-05 $END                                                         
 INPUT CARD> $SYSTEM MWORDS=60 MEMDDI=5000 $END                                             
 INPUT CARD> $BASIS GBASIS=N311 NGAUSS=6 NDFUNC=1 NPFUNC=1 DIFFSP=.TRUE. DIFFS=.TRUE. $END  
 INPUT CARD> $LMOEDA MATOM(1)=24,1 MCHARG(1)=0,-1 MMULT(1)=1,1 $END                         
 INPUT CARD> $GUESS guess=huckel $END                                                       
 INPUT CARD> $DATA                                                                          
 INPUT CARD>AC-Cl.inp                                                                       
 INPUT CARD>C1                                                                              
 INPUT CARD> C      6.0            2.95383100   -0.97047400    1.09352000                   
 INPUT CARD> C      6.0            4.10120800   -1.39859000   -1.03109100                   
 INPUT CARD> C      6.0            2.51910300   -3.04068100   -0.10780900                   
 INPUT CARD> H      1.0            1.53220300   -2.37981700    1.55042000                   
 INPUT CARD> H      1.0            4.26645200    0.27880000    0.14201100                   
 INPUT CARD> H      1.0            3.53277000   -3.18141500   -1.86850000                   
 INPUT CARD> N      7.0            3.43818300   -2.61635800   -1.03909400                   
 INPUT CARD> N      7.0            2.35545000   -2.20656600    0.96473700                   
 INPUT CARD> N      7.0            3.86805600   -0.66256700    0.10733300                   
 INPUT CARD> O      8.0            4.83687000   -1.05572500   -1.92208200                   
 INPUT CARD> O      8.0            1.93673700   -4.10195600   -0.23427200                   
 INPUT CARD> O      8.0            2.74187700   -0.23800100    2.03434500                   
 INPUT CARD> C      6.0            1.05105900    2.99409400    1.13319900                   
 INPUT CARD> C      6.0            1.68049200    4.22767700   -0.89003300                   
 INPUT CARD> C      6.0            3.26110100    2.66404200    0.16534700                   
 INPUT CARD> H      1.0            2.44229800    1.58971800    1.69808300                   
 INPUT CARD> H      1.0           -0.15245400    4.23223300    0.04061800                   
 INPUT CARD> H      1.0            3.58268000    3.77573200   -1.50943000                   
 INPUT CARD> N      7.0            2.92324300    3.62125100   -0.76275600                   
 INPUT CARD> N      7.0            2.30935300    2.42519700    1.11929300                   
 INPUT CARD> N      7.0            0.81755900    3.91605500    0.13427100                   
 INPUT CARD> O      8.0            1.42012700    4.98007600   -1.79436600                   
 INPUT CARD> O      8.0            4.34249400    2.10605200    0.13602700                   
 INPUT CARD> O      8.0            0.23653100    2.74372900    1.99243700                   
 INPUT CARD> Cl    17.0           -0.00373800   -0.00007800   -0.51944400                   
 INPUT CARD> $END                                                                           
   60000000 WORDS OF MEMORY AVAILABLE

     BASIS OPTIONS
     -------------
     GBASIS=N311         IGAUSS=       6      POLAR=POPN311 
     NDFUNC=       1     NFFUNC=       0     DIFFSP=       T
     NPFUNC=       1      DIFFS=       T     BASNAM=        


     RUN TITLE
     ---------
 AC-Cl.inp                                                                       

 THE POINT GROUP OF THE MOLECULE IS C1      
 THE ORDER OF THE PRINCIPAL AXIS IS     0

 ATOM      ATOMIC                      COORDINATES (BOHR)
           CHARGE         X                   Y                   Z
 C           6.0     5.5819312040       -1.8339299382        2.0664531621
 C           6.0     7.7501593387       -2.6429518692       -1.9484794584
 C           6.0     4.7604144048       -5.7460539061       -0.2037294690
 H           1.0     2.8954438276       -4.4972020309        2.9298689659
 H           1.0     8.0624252198        0.5268556054        0.2683618772
 H           1.0     6.6759672776       -6.0120026032       -3.5309530081
 N           7.0     6.4972237656       -4.9441997058       -1.9636029355
 N           7.0     4.4511550778       -4.1698051138        1.8230885802
 N           7.0     7.3095659452       -1.2520700785        0.2028299594
 O           8.0     9.1403589382       -1.9950309684       -3.6322083059
 O           8.0     3.6599022403       -7.7515728537       -0.4427098866
 O           8.0     5.1813962220       -0.4497566748        3.8443546145
 C           6.0     1.9862135069        5.6580172415        2.1414355996
 C           6.0     3.1756694046        7.9891510946       -1.6819184900
 C           6.0     6.1625873083        5.0343093998        0.3124605229
 H           1.0     4.6152740004        3.0041314177        3.2089115744
 H           1.0    -0.2880962857        7.9977606862        0.0767568902
 H           1.0     6.7702835017        7.1350988831       -2.8524090976
 N           7.0     5.5241282655        6.8431721228       -1.4413998355
 N           7.0     4.3640443789        4.5829577962        2.1151570700
 N           7.0     1.5449624888        7.4002709028        0.2537353981
 O           8.0     2.6836508978        9.4109790380       -3.3908600617
 O           8.0     8.2061237633        3.9798611959        0.2570537569
 O           8.0     0.4469787776        5.1848959946        3.7651599778
 CL         17.0    -0.0070637957       -0.0001473986       -0.9816068260

          INTERNUCLEAR DISTANCES (ANGS.)
          ------------------------------

                1 C          2 C          3 C          4 H          5 H     

   1 C       0.0000000    2.4522906 *  2.4326810 *  2.0532977 *  2.0467117 *
   2 C       2.4522906 *  0.0000000    2.4600749 *  3.7718420    2.0535606 *
   3 C       2.4326810 *  2.4600749 *  0.0000000    2.0397147 *  3.7596001  
   4 H       2.0532977 *  3.7718420    2.0397147 *  0.0000000    4.0654616  
   5 H       2.0467117 *  2.0535606 *  3.7596001    4.0654616    0.0000000  
   6 H       3.7412555    2.0500831 *  2.0365067 *  4.0415148    4.0686032  
   7 N       2.7370739 *  1.3865876 *  1.3755180 *  3.2240183    3.2346527  
   8 N       1.3793362 *  2.7719714 *  1.3685339 *  1.0250737 *  3.2412730  
   9 N       1.3795575 *  1.3755359 *  2.7425146 *  3.2384652    1.0227873 *
  10 O       3.5562563    1.2052468 *  3.5501663    4.9731593    2.5232546 *
  11 O       3.5501678    3.5535958    1.2171474 *  2.5128741 *  4.9759606  
  12 O       1.2110297 *  3.5484709    3.5346099    2.5069644 *  2.4844195 *
  13 C       4.3977170    5.7691622    6.3335427    5.4115148    4.3236590  
  14 C       5.7075957    6.1265523    7.3582723    7.0453373    4.8317630  
  15 C       3.7637251    4.3176640    5.7592569    5.5089045    2.5885623 *
  16 H       2.6798779 *  4.3738264    4.9706881    4.0752037    2.7326551 *
  17 H       6.1502658    7.1378126    7.7494855    6.9883315    5.9301470  
  18 H       5.4495203    5.2221918    7.0398312    7.1734177    3.9272554  
  19 N       4.9528411    5.1631782    6.7062376    6.5801666    3.7141341  
  20 N       3.4563851    4.7388018    5.6058538    4.8865112    3.0646919  
  21 N       5.4186698    6.3549879    7.1658936    6.4926265    5.0124392  
  22 O       6.7897849    6.9611898    8.2695082    8.0850590    5.8269304  
  23 O       3.5085880    3.7017427    5.4656263    5.4791663    1.8288434 *
  24 O       4.6890377    6.4215463    6.5635788    5.3032885    5.0734815  
  25 CL      3.5057860    4.3667150    3.9723339    3.5080777    4.3301060  

                6 H          7 N          8 N          9 N         10 O     

   1 C       3.7412555    2.7370739 *  1.3793362 *  1.3795575 *  3.5562563  
   2 C       2.0500831 *  1.3865876 *  2.7719714 *  1.3755359 *  1.2052468 *
   3 C       2.0365067 *  1.3755180 *  1.3685339 *  2.7425146 *  3.5501663  
   4 H       4.0415148    3.2240183    1.0250737 *  3.2384652    4.9731593  
   5 H       4.0686032    3.2346527    3.2412730    1.0227873 *  2.5232546 *
   6 H       0.0000000    1.0080429 *  3.2192615    3.2188395    2.4944149 *
   7 N       1.0080429 *  0.0000000    2.3142124 *  2.3057287 *  2.2741083 *
   8 N       3.2192615    2.3142124 *  0.0000000    2.3253067 *  3.9768837  
   9 N       3.2188395    2.3057287 *  2.3253067 *  0.0000000    2.2829146 *
  10 O       2.4944149 *  2.2741083 *  3.9768837    2.2829146 *  0.0000000  
  11 O       2.4628070 *  2.2603274 *  2.2815447 *  3.9593034    4.5319971  
  12 O       4.9519084    3.9480946    2.2734633 *  2.2719839 *  4.5509321  
  13 C       7.3010957    6.4725875    5.3643900    4.7285350    6.3299400  
  14 C       7.6995439    7.0677091    6.7301726    5.4492808    6.2403673  
  15 C       6.1951356    5.4189169    5.0181720    3.3820242    4.5472051  
  16 H       6.0558528    5.1161509    3.8674425    3.1042002    5.0831032  
  17 H       8.4963395    7.8077942    6.9714927    6.3346680    7.5304744  
  18 H       6.9665857    6.4109991    6.5890428    4.7322151    5.0086177  
  19 N       6.9188480    6.2649255    6.1049219    4.4722280    5.1846031  
  20 N       6.4697569    5.5991221    4.6345702    3.6038736    5.2683130  
  21 N       7.8585967    7.1356062    6.3672027    5.5018212    6.7158056  
  22 O       8.4308180    7.8961253    7.7546955    6.4380304    6.9369545  
  23 O       5.7123628    4.9497317    4.8201430    2.8091219 *  3.8048724  
  24 O       7.8025225    6.9405539    5.4819162    5.3239500    7.1359953  
  25 CL      4.9444662    4.3545123    3.5548770    3.9777544    5.1491038  

               11 O         12 O         13 C         14 C         15 C     

   1 C       3.5501678    1.2110297 *  4.3977170    5.7075957    3.7637251  
   2 C       3.5535958    3.5484709    5.7691622    6.1265523    4.3176640  
   3 C       1.2171474 *  3.5346099    6.3335427    7.3582723    5.7592569  
   4 H       2.5128741 *  2.5069644 *  5.4115148    7.0453373    5.5089045  
   5 H       4.9759606    2.4844195 *  4.3236590    4.8317630    2.5885623 *
   6 H       2.4628070 *  4.9519084    7.3010957    7.6995439    6.1951356  
   7 N       2.2603274 *  3.9480946    6.4725875    7.0677091    5.4189169  
   8 N       2.2815447 *  2.2734633 *  5.3643900    6.7301726    5.0181720  
   9 N       3.9593034    2.2719839 *  4.7285350    5.4492808    3.3820242  
  10 O       4.5319971    4.5509321    6.3299400    6.2403673    4.5472051  
  11 O       0.0000000    4.5524742    7.2806818    8.3593343    6.9059658  
  12 O       4.5524742    0.0000000    3.7573086    5.4424999    3.4906447  
  13 C       7.2806818    3.7573086    0.0000000    2.4518117 *  2.4351504 *
  14 C       8.3593343    5.4424999    2.4518117 *  0.0000000    2.4611189 *
  15 C       6.9059658    3.4906447    2.4351504 *  2.4611189 *  0.0000000  
  16 H       6.0319765    1.8823858 *  2.0559455 *  3.7732639    2.0430100 *
  17 H       8.5964522    5.6863953    2.0433220 *  2.0556807 *  3.7586085  
  18 H       8.1481976    5.4199025    3.7421319    2.0509086 *  2.0357175 *
  19 N       7.8038718    4.7697478    2.7373425 *  1.3886619 *  1.3754171 *
  20 N       6.6764292    2.8490386 *  1.3809927 *  2.7716045 *  1.3685336 *
  21 N       8.1041276    4.9567592    1.3792721 *  1.3751219 *  2.7457967 *
  22 O       9.2295224    6.6056323    3.5568206    1.2048703 *  3.5487567  
  23 O       6.6681445    3.4146992    3.5519734    3.5553265    1.2172195 *
  24 O       7.3967788    3.8947694    1.2101357 *  3.5490503    3.5344917  
  25 CL      4.5466657    3.7572393    3.5789512    4.5659478    4.2691507  

               16 H         17 H         18 H         19 N         20 N     

   1 C       2.6798779 *  6.1502658    5.4495203    4.9528411    3.4563851  
   2 C       4.3738264    7.1378126    5.2221918    5.1631782    4.7388018  
   3 C       4.9706881    7.7494855    7.0398312    6.7062376    5.6058538  
   4 H       4.0752037    6.9883315    7.1734177    6.5801666    4.8865112  
   5 H       2.7326551 *  5.9301470    3.9272554    3.7141341    3.0646919  
   6 H       6.0558528    8.4963395    6.9665857    6.9188480    6.4697569  
   7 N       5.1161509    7.8077942    6.4109991    6.2649255    5.5991221  
   8 N       3.8674425    6.9714927    6.5890428    6.1049219    4.6345702  
   9 N       3.1042002    6.3346680    4.7322151    4.4722280    3.6038736  
  10 O       5.0831032    7.5304744    5.0086177    5.1846031    5.2683130  
  11 O       6.0319765    8.5964522    8.1481976    7.8038718    6.6764292  
  12 O       1.8823858 *  5.6863953    5.4199025    4.7697478    2.8490386 *
  13 C       2.0559455 *  2.0433220 *  3.7421319    2.7373425 *  1.3809927 *
  14 C       3.7732639    2.0556807 *  2.0509086 *  1.3886619 *  2.7716045 *
  15 C       2.0430100 *  3.7586085    2.0357175 *  1.3754171 *  1.3685336 *
  16 H       0.0000000    4.0574393    4.0456480    3.2270982    1.0250353 *
  17 H       4.0574393    0.0000000    4.0696766    3.2370698    3.2387363  
  18 H       4.0456480    4.0696766    0.0000000    1.0080891 *  3.2179949  
  19 N       3.2270982    3.2370698    1.0080891 *  0.0000000    2.3129018 *
  20 N       1.0250353 *  3.2387363    3.2179949    2.3129018 *  0.0000000  
  21 N       3.2399273    1.0245314 *  3.2198350    2.3076984 *  2.3277404 *
  22 O       4.9735863    2.5297127 *  2.4916397 *  2.2737595 *  3.9758695  
  23 O       2.5134368 *  4.9733596    2.4642803 *  2.2622803 *  2.2808612 *
  24 O       2.5067496 *  2.4852668 *  4.9522536    3.9470945    2.2716589 *
  25 CL      3.6644194    4.2717961    5.3008686    4.6626647    3.7306578  

               21 N         22 O         23 O         24 O         25 CL    

   1 C       5.4186698    6.7897849    3.5085880    4.6890377    3.5057860  
   2 C       6.3549879    6.9611898    3.7017427    6.4215463    4.3667150  
   3 C       7.1658936    8.2695082    5.4656263    6.5635788    3.9723339  
   4 H       6.4926265    8.0850590    5.4791663    5.3032885    3.5080777  
   5 H       5.0124392    5.8269304    1.8288434 *  5.0734815    4.3301060  
   6 H       7.8585967    8.4308180    5.7123628    7.8025225    4.9444662  
   7 N       7.1356062    7.8961253    4.9497317    6.9405539    4.3545123  
   8 N       6.3672027    7.7546955    4.8201430    5.4819162    3.5548770  
   9 N       5.5018212    6.4380304    2.8091219 *  5.3239500    3.9777544  
  10 O       6.7158056    6.9369545    3.8048724    7.1359953    5.1491038  
  11 O       8.1041276    9.2295224    6.6681445    7.3967788    4.5466657  
  12 O       4.9567592    6.6056323    3.4146992    3.8947694    3.7572393  
  13 C       1.3792721 *  3.5568206    3.5519734    1.2101357 *  3.5789512  
  14 C       1.3751219 *  1.2048703 *  3.5553265    3.5490503    4.5659478  
  15 C       2.7457967 *  3.5487567    1.2172195 *  3.5344917    4.2691507  
  16 H       3.2399273    4.9735863    2.5134368 *  2.5067496 *  3.6644194  
  17 H       1.0245314 *  2.5297127 *  4.9733596    2.4852668 *  4.2717961  
  18 H       3.2198350    2.4916397 *  2.4642803 *  4.9522536    5.3008686  
  19 N       2.3076984 *  2.2737595 *  2.2622803 *  3.9470945    4.6626647  
  20 N       2.3277404 *  3.9758695    2.2808612 *  2.2716589 *  3.7306578  
  21 N       0.0000000    2.2836089 *  3.9624842    2.2726026 *  4.0543766  
  22 O       2.2836089 *  0.0000000    4.5306357    4.5543413    5.3342995  
  23 O       3.9624842    4.5306357    0.0000000    4.5510243    4.8739264  
  24 O       2.2726026 *  4.5543413    4.5510243    0.0000000    3.7277007  
  25 CL      4.0543766    5.3342995    4.8739264    3.7277007    0.0000000  

  * ... LESS THAN  3.000


     ATOMIC BASIS SET
     ----------------
 THE CONTRACTED PRIMITIVE FUNCTIONS HAVE BEEN UNNORMALIZED
 THE CONTRACTED BASIS FUNCTIONS ARE NOW NORMALIZED TO UNITY

  SHELL TYPE  PRIMITIVE        EXPONENT          CONTRACTION COEFFICIENT(S)

 C         

      1   S       1          4563.2400000    0.001966650249
      1   S       2           682.0240000    0.015230601932
      1   S       3           154.9730000    0.076126909656
      1   S       4            44.4553000    0.260801033080
      1   S       5            13.0290000    0.616462078191
      1   S       6             1.8277300    0.221006028032

      2   L       7            20.9642000    0.114660080729    0.040248692673
      2   L       8             4.8033100    0.919999647749    0.237593956746
      2   L       9             1.4593300   -0.003030682134    0.815853851473

      3   L      10             0.4834560    1.000000000000    1.000000000000

      4   L      11             0.1455850    1.000000000000    1.000000000000

      5   L      12             0.0438000    1.000000000000    1.000000000000

      6   D      13             0.6260000    1.000000000000

 C         

      7   S      14          4563.2400000    0.001966650249
      7   S      15           682.0240000    0.015230601932
      7   S      16           154.9730000    0.076126909656
      7   S      17            44.4553000    0.260801033080
      7   S      18            13.0290000    0.616462078191
      7   S      19             1.8277300    0.221006028032

      8   L      20            20.9642000    0.114660080729    0.040248692673
      8   L      21             4.8033100    0.919999647749    0.237593956746
      8   L      22             1.4593300   -0.003030682134    0.815853851473

      9   L      23             0.4834560    1.000000000000    1.000000000000

     10   L      24             0.1455850    1.000000000000    1.000000000000

     11   L      25             0.0438000    1.000000000000    1.000000000000

     12   D      26             0.6260000    1.000000000000

 C         

     13   S      27          4563.2400000    0.001966650249
     13   S      28           682.0240000    0.015230601932
     13   S      29           154.9730000    0.076126909656
     13   S      30            44.4553000    0.260801033080
     13   S      31            13.0290000    0.616462078191
     13   S      32             1.8277300    0.221006028032

     14   L      33            20.9642000    0.114660080729    0.040248692673
     14   L      34             4.8033100    0.919999647749    0.237593956746
     14   L      35             1.4593300   -0.003030682134    0.815853851473

     15   L      36             0.4834560    1.000000000000    1.000000000000

     16   L      37             0.1455850    1.000000000000    1.000000000000

     17   L      38             0.0438000    1.000000000000    1.000000000000

     18   D      39             0.6260000    1.000000000000

 H         

     19   S      40            33.8650000    0.025493814541
     19   S      41             5.0947900    0.190373108582
     19   S      42             1.1587900    0.852161486043

     20   S      43             0.3258400    1.000000000000

     21   S      44             0.1027410    1.000000000000

     22   S      45             0.0360000    1.000000000000

     23   P      46             0.7500000    1.000000000000

 H         

     24   S      47            33.8650000    0.025493814541
     24   S      48             5.0947900    0.190373108582
     24   S      49             1.1587900    0.852161486043

     25   S      50             0.3258400    1.000000000000

     26   S      51             0.1027410    1.000000000000

     27   S      52             0.0360000    1.000000000000

     28   P      53             0.7500000    1.000000000000

 H         

     29   S      54            33.8650000    0.025493814541
     29   S      55             5.0947900    0.190373108582
     29   S      56             1.1587900    0.852161486043

     30   S      57             0.3258400    1.000000000000

     31   S      58             0.1027410    1.000000000000

     32   S      59             0.0360000    1.000000000000

     33   P      60             0.7500000    1.000000000000

 N         

     34   S      61          6293.4800000    0.001969788147
     34   S      62           949.0440000    0.014961285923
     34   S      63           218.7760000    0.073500530843
     34   S      64            63.6916000    0.248936765774
     34   S      65            18.8282000    0.602459433142
     34   S      66             2.7202300    0.256201758938

     35   L      67            30.6331000    0.111906079519    0.038311918640
     35   L      68             7.0261400    0.921666654920    0.237403115502
     35   L      69             2.1120500   -0.002569191826    0.817592397779

     36   L      70             0.6840090    1.000000000000    1.000000000000

     37   L      71             0.2008780    1.000000000000    1.000000000000

     38   L      72             0.0639000    1.000000000000    1.000000000000

     39   D      73             0.9130000    1.000000000000

 N         

     40   S      74          6293.4800000    0.001969788147
     40   S      75           949.0440000    0.014961285923
     40   S      76           218.7760000    0.073500530843
     40   S      77            63.6916000    0.248936765774
     40   S      78            18.8282000    0.602459433142
     40   S      79             2.7202300    0.256201758938

     41   L      80            30.6331000    0.111906079519    0.038311918640
     41   L      81             7.0261400    0.921666654920    0.237403115502
     41   L      82             2.1120500   -0.002569191826    0.817592397779

     42   L      83             0.6840090    1.000000000000    1.000000000000

     43   L      84             0.2008780    1.000000000000    1.000000000000

     44   L      85             0.0639000    1.000000000000    1.000000000000

     45   D      86             0.9130000    1.000000000000

 N         

     46   S      87          6293.4800000    0.001969788147
     46   S      88           949.0440000    0.014961285923
     46   S      89           218.7760000    0.073500530843
     46   S      90            63.6916000    0.248936765774
     46   S      91            18.8282000    0.602459433142
     46   S      92             2.7202300    0.256201758938

     47   L      93            30.6331000    0.111906079519    0.038311918640
     47   L      94             7.0261400    0.921666654920    0.237403115502
     47   L      95             2.1120500   -0.002569191826    0.817592397779

     48   L      96             0.6840090    1.000000000000    1.000000000000

     49   L      97             0.2008780    1.000000000000    1.000000000000

     50   L      98             0.0639000    1.000000000000    1.000000000000

     51   D      99             0.9130000    1.000000000000

 O         

     52   S     100          8588.5000000    0.001895150083
     52   S     101          1297.2300000    0.014385900631
     52   S     102           299.2960000    0.070732003103
     52   S     103            87.3771000    0.240001010530
     52   S     104            25.6789000    0.594797026097
     52   S     105             3.7400400    0.280802012320

     53   L     106            42.1175000    0.113889012440    0.036511397380
     53   L     107             9.6283700    0.920811100576    0.237152982984
     53   L     108             2.8533200   -0.003274470358    0.819701941186

     54   L     109             0.9056610    1.000000000000    1.000000000000

     55   L     110             0.2556110    1.000000000000    1.000000000000

     56   L     111             0.0845000    1.000000000000    1.000000000000

     57   D     112             1.2920000    1.000000000000

 O         

     58   S     113          8588.5000000    0.001895150083
     58   S     114          1297.2300000    0.014385900631
     58   S     115           299.2960000    0.070732003103
     58   S     116            87.3771000    0.240001010530
     58   S     117            25.6789000    0.594797026097
     58   S     118             3.7400400    0.280802012320

     59   L     119            42.1175000    0.113889012440    0.036511397380
     59   L     120             9.6283700    0.920811100576    0.237152982984
     59   L     121             2.8533200   -0.003274470358    0.819701941186

     60   L     122             0.9056610    1.000000000000    1.000000000000

     61   L     123             0.2556110    1.000000000000    1.000000000000

     62   L     124             0.0845000    1.000000000000    1.000000000000

     63   D     125             1.2920000    1.000000000000

 O         

     64   S     126          8588.5000000    0.001895150083
     64   S     127          1297.2300000    0.014385900631
     64   S     128           299.2960000    0.070732003103
     64   S     129            87.3771000    0.240001010530
     64   S     130            25.6789000    0.594797026097
     64   S     131             3.7400400    0.280802012320

     65   L     132            42.1175000    0.113889012440    0.036511397380
     65   L     133             9.6283700    0.920811100576    0.237152982984
     65   L     134             2.8533200   -0.003274470358    0.819701941186

     66   L     135             0.9056610    1.000000000000    1.000000000000

     67   L     136             0.2556110    1.000000000000    1.000000000000

     68   L     137             0.0845000    1.000000000000    1.000000000000

     69   D     138             1.2920000    1.000000000000

 C         

     70   S     139          4563.2400000    0.001966650249
     70   S     140           682.0240000    0.015230601932
     70   S     141           154.9730000    0.076126909656
     70   S     142            44.4553000    0.260801033080
     70   S     143            13.0290000    0.616462078191
     70   S     144             1.8277300    0.221006028032

     71   L     145            20.9642000    0.114660080729    0.040248692673
     71   L     146             4.8033100    0.919999647749    0.237593956746
     71   L     147             1.4593300   -0.003030682134    0.815853851473

     72   L     148             0.4834560    1.000000000000    1.000000000000

     73   L     149             0.1455850    1.000000000000    1.000000000000

     74   L     150             0.0438000    1.000000000000    1.000000000000

     75   D     151             0.6260000    1.000000000000

 C         

     76   S     152          4563.2400000    0.001966650249
     76   S     153           682.0240000    0.015230601932
     76   S     154           154.9730000    0.076126909656
     76   S     155            44.4553000    0.260801033080
     76   S     156            13.0290000    0.616462078191
     76   S     157             1.8277300    0.221006028032

     77   L     158            20.9642000    0.114660080729    0.040248692673
     77   L     159             4.8033100    0.919999647749    0.237593956746
     77   L     160             1.4593300   -0.003030682134    0.815853851473

     78   L     161             0.4834560    1.000000000000    1.000000000000

     79   L     162             0.1455850    1.000000000000    1.000000000000

     80   L     163             0.0438000    1.000000000000    1.000000000000

     81   D     164             0.6260000    1.000000000000

 C         

     82   S     165          4563.2400000    0.001966650249
     82   S     166           682.0240000    0.015230601932
     82   S     167           154.9730000    0.076126909656
     82   S     168            44.4553000    0.260801033080
     82   S     169            13.0290000    0.616462078191
     82   S     170             1.8277300    0.221006028032

     83   L     171            20.9642000    0.114660080729    0.040248692673
     83   L     172             4.8033100    0.919999647749    0.237593956746
     83   L     173             1.4593300   -0.003030682134    0.815853851473

     84   L     174             0.4834560    1.000000000000    1.000000000000

     85   L     175             0.1455850    1.000000000000    1.000000000000

     86   L     176             0.0438000    1.000000000000    1.000000000000

     87   D     177             0.6260000    1.000000000000

 H         

     88   S     178            33.8650000    0.025493814541
     88   S     179             5.0947900    0.190373108582
     88   S     180             1.1587900    0.852161486043

     89   S     181             0.3258400    1.000000000000

     90   S     182             0.1027410    1.000000000000

     91   S     183             0.0360000    1.000000000000

     92   P     184             0.7500000    1.000000000000

 H         

     93   S     185            33.8650000    0.025493814541
     93   S     186             5.0947900    0.190373108582
     93   S     187             1.1587900    0.852161486043

     94   S     188             0.3258400    1.000000000000

     95   S     189             0.1027410    1.000000000000

     96   S     190             0.0360000    1.000000000000

     97   P     191             0.7500000    1.000000000000

 H         

     98   S     192            33.8650000    0.025493814541
     98   S     193             5.0947900    0.190373108582
     98   S     194             1.1587900    0.852161486043

     99   S     195             0.3258400    1.000000000000

    100   S     196             0.1027410    1.000000000000

    101   S     197             0.0360000    1.000000000000

    102   P     198             0.7500000    1.000000000000

 N         

    103   S     199          6293.4800000    0.001969788147
    103   S     200           949.0440000    0.014961285923
    103   S     201           218.7760000    0.073500530843
    103   S     202            63.6916000    0.248936765774
    103   S     203            18.8282000    0.602459433142
    103   S     204             2.7202300    0.256201758938

    104   L     205            30.6331000    0.111906079519    0.038311918640
    104   L     206             7.0261400    0.921666654920    0.237403115502
    104   L     207             2.1120500   -0.002569191826    0.817592397779

    105   L     208             0.6840090    1.000000000000    1.000000000000

    106   L     209             0.2008780    1.000000000000    1.000000000000

    107   L     210             0.0639000    1.000000000000    1.000000000000

    108   D     211             0.9130000    1.000000000000

 N         

    109   S     212          6293.4800000    0.001969788147
    109   S     213           949.0440000    0.014961285923
    109   S     214           218.7760000    0.073500530843
    109   S     215            63.6916000    0.248936765774
    109   S     216            18.8282000    0.602459433142
    109   S     217             2.7202300    0.256201758938

    110   L     218            30.6331000    0.111906079519    0.038311918640
    110   L     219             7.0261400    0.921666654920    0.237403115502
    110   L     220             2.1120500   -0.002569191826    0.817592397779

    111   L     221             0.6840090    1.000000000000    1.000000000000

    112   L     222             0.2008780    1.000000000000    1.000000000000

    113   L     223             0.0639000    1.000000000000    1.000000000000

    114   D     224             0.9130000    1.000000000000

 N         

    115   S     225          6293.4800000    0.001969788147
    115   S     226           949.0440000    0.014961285923
    115   S     227           218.7760000    0.073500530843
    115   S     228            63.6916000    0.248936765774
    115   S     229            18.8282000    0.602459433142
    115   S     230             2.7202300    0.256201758938

    116   L     231            30.6331000    0.111906079519    0.038311918640
    116   L     232             7.0261400    0.921666654920    0.237403115502
    116   L     233             2.1120500   -0.002569191826    0.817592397779

    117   L     234             0.6840090    1.000000000000    1.000000000000

    118   L     235             0.2008780    1.000000000000    1.000000000000

    119   L     236             0.0639000    1.000000000000    1.000000000000

    120   D     237             0.9130000    1.000000000000

 O         

    121   S     238          8588.5000000    0.001895150083
    121   S     239          1297.2300000    0.014385900631
    121   S     240           299.2960000    0.070732003103
    121   S     241            87.3771000    0.240001010530
    121   S     242            25.6789000    0.594797026097
    121   S     243             3.7400400    0.280802012320

    122   L     244            42.1175000    0.113889012440    0.036511397380
    122   L     245             9.6283700    0.920811100576    0.237152982984
    122   L     246             2.8533200   -0.003274470358    0.819701941186

    123   L     247             0.9056610    1.000000000000    1.000000000000

    124   L     248             0.2556110    1.000000000000    1.000000000000

    125   L     249             0.0845000    1.000000000000    1.000000000000

    126   D     250             1.2920000    1.000000000000

 O         

    127   S     251          8588.5000000    0.001895150083
    127   S     252          1297.2300000    0.014385900631
    127   S     253           299.2960000    0.070732003103
    127   S     254            87.3771000    0.240001010530
    127   S     255            25.6789000    0.594797026097
    127   S     256             3.7400400    0.280802012320

    128   L     257            42.1175000    0.113889012440    0.036511397380
    128   L     258             9.6283700    0.920811100576    0.237152982984
    128   L     259             2.8533200   -0.003274470358    0.819701941186

    129   L     260             0.9056610    1.000000000000    1.000000000000

    130   L     261             0.2556110    1.000000000000    1.000000000000

    131   L     262             0.0845000    1.000000000000    1.000000000000

    132   D     263             1.2920000    1.000000000000

 O         

    133   S     264          8588.5000000    0.001895150083
    133   S     265          1297.2300000    0.014385900631
    133   S     266           299.2960000    0.070732003103
    133   S     267            87.3771000    0.240001010530
    133   S     268            25.6789000    0.594797026097
    133   S     269             3.7400400    0.280802012320

    134   L     270            42.1175000    0.113889012440    0.036511397380
    134   L     271             9.6283700    0.920811100576    0.237152982984
    134   L     272             2.8533200   -0.003274470358    0.819701941186

    135   L     273             0.9056610    1.000000000000    1.000000000000

    136   L     274             0.2556110    1.000000000000    1.000000000000

    137   L     275             0.0845000    1.000000000000    1.000000000000

    138   D     276             1.2920000    1.000000000000

 CL        

    139   S     277        105818.8000000    0.000743000275
    139   S     278         15872.0000000    0.005753002128
    139   S     279          3619.7000000    0.029676010978
    139   S     280          1030.8000000    0.118010043656
    139   S     281           339.9100000    0.365230135112
    139   S     282           124.5380000    0.581221215015

    140   S     283           124.5380000    0.137547961709
    140   S     284            49.5140000    0.622880826601
    140   S     285            20.8060000    0.290142919229

    141   S     286             6.4648000    1.000000000000

    142   S     287             2.5254000    1.000000000000

    143   S     288             0.5378000    1.000000000000

    144   S     289             0.1935000    1.000000000000

    145   P     290           589.7800000    0.002759999618
    145   P     291           139.8500000    0.021535997016
    145   P     292            44.7950000    0.095915986708
    145   P     293            16.6120000    0.262314963650
    145   P     294             6.5995000    0.726810899282

    146   P     295             6.5995000   -1.564657110393
    146   P     296             2.7141000    1.496125206176

    147   P     297             0.9528000    1.000000000000

    148   P     298             0.3580000    1.000000000000

    149   P     299             0.1250000    1.000000000000

    150   L     300             0.0483000    1.000000000000    1.000000000000

    151   D     301             0.7500000    1.000000000000

 TOTAL NUMBER OF BASIS SET SHELLS             =  151
 NUMBER OF CARTESIAN GAUSSIAN BASIS FUNCTIONS =  487
 NOTE: THIS RUN WILL RESTRICT THE MO VARIATION SPACE TO SPHERICAL HARMONICS.
 THE NUMBER OF ORBITALS KEPT IN THE VARIATIONAL SPACE WILL BE PRINTED LATER.
 NUMBER OF ELECTRONS                          =  150
 CHARGE OF MOLECULE                           =   -1
 SPIN MULTIPLICITY                            =    1
 NUMBER OF OCCUPIED ORBITALS (ALPHA)          =   75
 NUMBER OF OCCUPIED ORBITALS (BETA )          =   75
 TOTAL NUMBER OF ATOMS                        =   25
 THE NUCLEAR REPULSION ENERGY IS     1616.7928831709

     LEBEDEV GRID-BASED DFT OPTIONS
     ------------------------------
     DFTTYP=BLYP    
     NRAD  =      96     NLEB  =     302
     NRAD0 =      24     NLEB0 =     110
     SWOFF =    5.00E-03 (PURE SCF -> DFT)
     SWITCH=    3.00E-04 (COARSE -> TIGHT GRID)
     THRESH=    0.00E+00 GTHRE=    1.00E+00

 GRIMME'S EMPIRICAL DISPERSION CORRECTION= T
  ________________________________

           DFTD3 V1.2             
   S.GRIMME, UNIVERSITY MUENSTER  
   WED MAR 10 08:38:00 CET 2010   
  ________________________________

 PLEASE CITE DFT-D3 WORK DONE WITH THIS CODE AS:
 S. GRIMME, J. ANTONY, S. EHRLICH AND H. KRIEG,
 J. CHEM. PHYS, 132 (2010), 154104.

 DFT-D3 PARAMETERS WILL BE LOADED AND PRINTED
 BEFORE THE RESULTS

 IMPLEMENTATION OF DFT-D IN GAMESS BY:
 R.PEVERATI AND K.K.BALDRIDGE, 
 J.CHEM.THEORY COMPUT. 4,(2008), 2030-2048


     $CONTRL OPTIONS
     ---------------
 SCFTYP=RHF          RUNTYP=LMOEDA       EXETYP=RUN     
 MPLEVL=       0     CITYP =NONE         CCTYP =NONE         VBTYP =NONE    
 DFTTYP=BLYP         TDDFT =NONE    
 MULT  =       1     ICHARG=      -1     NZVAR =       0     COORD =UNIQUE  
 PP    =NONE         RELWFN=NONE         LOCAL =NONE         NUMGRD=       F
 ISPHER=       1     NOSYM =       1     MAXIT =      90     UNITS =ANGS    
 PLTORB=       F     MOLPLT=       F     AIMPAC=       F     FRIEND=        
 NPRINT=      -5     IREST =       0     GEOM  =INPUT   
 NORMF =       0     NORMP =       0     ITOL  =      20     ICUT  =       9
 INTTYP=BEST         GRDTYP=BEST         QMTTOL= 1.0E-06

     $SYSTEM OPTIONS
     ---------------
  REPLICATED MEMORY=    60000000 WORDS (ON EVERY NODE).
 DISTRIBUTED MEMDDI=        5000 MILLION WORDS IN AGGREGATE,
 MEMDDI DISTRIBUTED OVER   8 PROCESSORS IS   625000000 WORDS/PROCESSOR.
 TOTAL MEMORY REQUESTED ON EACH PROCESSOR=   685000000 WORDS.
 TIMLIM=      525600.00 MINUTES, OR     365.0 DAYS.
 PARALL= T  BALTYP=  DLB     KDIAG=    0  COREFL= F
 MXSEQ2=     300 MXSEQ3=     150  mem10=         0

          ----------------
          PROPERTIES INPUT
          ----------------

     MOMENTS            FIELD           POTENTIAL          DENSITY
 IEMOM =       1   IEFLD =       0   IEPOT =       0   IEDEN =       0
 WHERE =COMASS     WHERE =NUCLEI     WHERE =NUCLEI     WHERE =NUCLEI  
 OUTPUT=BOTH       OUTPUT=BOTH       OUTPUT=BOTH       OUTPUT=BOTH    
 IEMINT=       0   IEFINT=       0                     IEDINT=       0
                                                       MORB  =       0
          EXTRAPOLATION IN EFFECT
          DIIS IN EFFECT
 ORBITAL PRINTING OPTION: NPREO=     1   487     2     1

     -------------------------------
     INTEGRAL TRANSFORMATION OPTIONS
     -------------------------------
     NWORD  =            0
     CUTOFF = 1.0E-09     MPTRAN =       0
     DIRTRF =       F     AOINTS =DUP     

          -----------------------------
          LOCALIZATION INPUT PARAMETERS
          -----------------------------
           LOCAL=RUEDNBRG      NOUTA=       0
          PRTLOC=       F      NOUTB=       0
          MAXLOC=     250     CVGLOC=1.00E-06
           FCORE=       F     SYMLOC=       F
          MOIDON=       F     EDCOMP=       F
          DIPDCM=       F      NPROT=       0
          QADDCM=       F     DEPRNT=       F
          POLNUM=       F     ORIENT=       F
          POLDYN=       F      VMTOL=1.50E-01
          NPRDTL=       2

          ----------------------
          INTEGRAL INPUT OPTIONS
          ----------------------
 NOPK  =       1 NORDER=       0 SCHWRZ=       T

     ------------------------------------------
     THE POINT GROUP IS C1 , NAXIS= 1, ORDER= 1
     ------------------------------------------

 -- VARIATIONAL SPACE WILL BE RESTRICTED TO PURE SPHERICAL HARMONICS ONLY --
 AFTER EXCLUDING CONTAMINANT COMBINATIONS FROM THE CARTESIAN GAUSSIAN BASIS
 SET, THE NUMBER OF SPHERICAL HARMONICS KEPT IN THE VARIATION SPACE IS  468

     DIMENSIONS OF THE SYMMETRY SUBSPACES ARE
 A   =  468

 ..... DONE SETTING UP THE RUN .....
 CPU     0: STEP CPU TIME=     0.09 TOTAL CPU TIME=        0.1 (    0.0 MIN)
 TOTAL WALL CLOCK TIME=        0.1 SECONDS, CPU UTILIZATION IS  75.00%
 ...... END OF ONE-ELECTRON INTEGRALS ......
 CPU     0: STEP CPU TIME=     0.13 TOTAL CPU TIME=        0.2 (    0.0 MIN)
 TOTAL WALL CLOCK TIME=        0.3 SECONDS, CPU UTILIZATION IS  84.62%

          -------------
          GUESS OPTIONS
          -------------
          GUESS =HUCKEL            NORB  =       0          NORDER=       0
          MIX   =       F          PRTMO =       F          PUNMO =       F
          TOLZ  = 1.0E-08          TOLE  = 1.0E-05
          SYMDEN=       F          PURIFY=       F

 INITIAL GUESS ORBITALS GENERATED BY HUCKEL   ROUTINE.
 HUCKEL GUESS REQUIRES   1767871 WORDS.

 SYMMETRIES FOR INITIAL GUESS ORBITALS FOLLOW.   BOTH SET(S).
    75 ORBITALS ARE OCCUPIED (   23 CORE ORBITALS).
    24=A       25=A       26=A       27=A       28=A       29=A       30=A   
    31=A       32=A       33=A       34=A       35=A       36=A       37=A   
    38=A       39=A       40=A       41=A       42=A       43=A       44=A   
    45=A       46=A       47=A       48=A       49=A       50=A       51=A   
    52=A       53=A       54=A       55=A       56=A       57=A       58=A   
    59=A       60=A       61=A       62=A       63=A       64=A       65=A   
    66=A       67=A       68=A       69=A       70=A       71=A       72=A   
    73=A       74=A       75=A       76=A       77=A       78=A       79=A   
    80=A       81=A       82=A       83=A       84=A       85=A   
 ...... END OF INITIAL ORBITAL SELECTION ......
 CPU     0: STEP CPU TIME=     0.63 TOTAL CPU TIME=        0.9 (    0.0 MIN)
 TOTAL WALL CLOCK TIME=        1.1 SECONDS, CPU UTILIZATION IS  79.44%


          ***************************************
          *  LMO ENERGY DECOMPOSITION ANALYSIS  *
          *      - PEIFENG SU AND HUI LI -      *
          ***************************************



 =======================================================================
 LMOEDA PERFORMS THE FOLLOWING CALCULATIONS:
 1. HF/DFT/MP2/CCSD/CCSD(T) FOR MONOMERS WITH
         MONOMERS OWN BASIS FUNCTIONS
         ALL BASIS FUNCTIONS (IF SUPBAS=.T.)
 2. ELECTROSTATIC ENERGY WITH HF/DFT DENSITY OF THE MONOMERS
 3. EXCHANGE ENERGY WITH HF/DFT MO OF THE MONOMERS
 4. SUPER MOLECULE ENERGY WITH ANTISYMMETRIZED HF/DFT MO OF THE MONOMERS
 5. HF/DFT/MP2/CCSD/CCSD(T) FOR THE SUPER MOLECULE
 =======================================================================

          -------------------------
          MONOMER  1 WITH OWN BASIS
          -------------------------

     ------------------------------------------
     THE POINT GROUP IS C1 , NAXIS= 1, ORDER= 1
     ------------------------------------------

 -- VARIATIONAL SPACE WILL BE RESTRICTED TO PURE SPHERICAL HARMONICS ONLY --
 AFTER EXCLUDING CONTAMINANT COMBINATIONS FROM THE CARTESIAN GAUSSIAN BASIS
 SET, THE NUMBER OF SPHERICAL HARMONICS KEPT IN THE VARIATION SPACE IS  438

     DIMENSIONS OF THE SYMMETRY SUBSPACES ARE
 A   =  438
 ...... END OF ONE-ELECTRON INTEGRALS ......
 CPU     0: STEP CPU TIME=     0.10 TOTAL CPU TIME=        1.0 (    0.0 MIN)
 TOTAL WALL CLOCK TIME=        1.2 SECONDS, CPU UTILIZATION IS  80.51%

          -------------
          GUESS OPTIONS
          -------------
          GUESS =HUCKEL            NORB  =       0          NORDER=       0
          MIX   =       F          PRTMO =       F          PUNMO =       F
          TOLZ  = 1.0E-08          TOLE  = 1.0E-05
          SYMDEN=       F          PURIFY=       F

 INITIAL GUESS ORBITALS GENERATED BY HUCKEL   ROUTINE.
 HUCKEL GUESS REQUIRES   1549296 WORDS.

 SYMMETRIES FOR INITIAL GUESS ORBITALS FOLLOW.   BOTH SET(S).
    66 ORBITALS ARE OCCUPIED (   18 CORE ORBITALS).
    19=A       20=A       21=A       22=A       23=A       24=A       25=A   
    26=A       27=A       28=A       29=A       30=A       31=A       32=A   
    33=A       34=A       35=A       36=A       37=A       38=A       39=A   
    40=A       41=A       42=A       43=A       44=A       45=A       46=A   
    47=A       48=A       49=A       50=A       51=A       52=A       53=A   
    54=A       55=A       56=A       57=A       58=A       59=A       60=A   
    61=A       62=A       63=A       64=A       65=A       66=A       67=A   
    68=A       69=A       70=A       71=A       72=A       73=A       74=A   
    75=A       76=A   
 ...... END OF INITIAL ORBITAL SELECTION ......
 CPU     0: STEP CPU TIME=     0.41 TOTAL CPU TIME=        1.4 (    0.0 MIN)
 TOTAL WALL CLOCK TIME=        1.7 SECONDS, CPU UTILIZATION IS  78.61%

                    ----------------------
                    AO INTEGRAL TECHNOLOGY
                    ----------------------
     S,P,L SHELL ROTATED AXIS INTEGRALS, REPROGRAMMED BY
        KAZUYA ISHIMURA (IMS) AND JOSE SIERRA (SYNSTAR).
     S,P,D,L SHELL ROTATED AXIS INTEGRALS PROGRAMMED BY
        KAZUYA ISHIMURA (INSTITUTE FOR MOLECULAR SCIENCE).
     S,P,D,F,G SHELL TO TOTAL QUARTET ANGULAR MOMENTUM SUM 5,
        ERIC PROGRAM BY GRAHAM FLETCHER (ELORET AND NASA ADVANCED
        SUPERCOMPUTING DIVISION, AMES RESEARCH CENTER).
     S,P,D,F,G,L SHELL GENERAL RYS QUADRATURE PROGRAMMED BY
        MICHEL DUPUIS (PACIFIC NORTHWEST NATIONAL LABORATORY).
 TOTAL NUMBER OF NONZERO TWO-ELECTRON INTEGRALS =          2031530467
     135439 INTEGRAL RECORDS WERE STORED ON DISK FILE  8.
  ...... END OF TWO-ELECTRON INTEGRALS .....
 CPU     0: STEP CPU TIME=    22.54 TOTAL CPU TIME=       23.9 (    0.4 MIN)
 TOTAL WALL CLOCK TIME=      133.2 SECONDS, CPU UTILIZATION IS  17.95%

          --------------------------
              R-BLYP SCF CALCULATION
          --------------------------
         DENSITY MATRIX CONVERGENCE THRESHOLD=  1.00E-05
     COARSE -> FINE DFT GRID SWITCH THRESHOLD=  3.00E-04 (SWITCH IN $DFT)
                   HF -> DFT SWITCH THRESHOLD=  5.00E-03 (SWOFF IN $DFT)

     EXCHANGE FUNCTIONAL   =BECKE88   
     CORRELATION FUNCTIONAL=LYP88     
     DFT THRESHOLD         =.144E-08
     GRID CHANGE THRESHOLD =.300E-03
 FOR AN EULER-MACLAURIN QUADRATURE USING  96 RADIAL POINTS:
 SMALLEST GAUSSIAN PRIMITIVE EXPONENT=        0.0360000000 OF TYPE -S-
 ON ATOM NUMBER   4 HAS RADIAL NORMALIZATION=  1.000000
  LARGEST GAUSSIAN PRIMITIVE EXPONENT=     8588.5000000000 OF TYPE -S-
 ON ATOM NUMBER  10 HAS RADIAL NORMALIZATION=  1.000000
 DFT IS SWITCHED OFF, PERFORMING PURE SCF UNTIL SWOFF THRESHOLD IS REACHED.

 ITER EX DEM     TOTAL ENERGY        E CHANGE  DENSITY CHANGE    DIIS ERROR
   1  0  0    -1003.0423458353 -1003.0423458353   1.040833975   1.039331790
          * * *   INITIATING DIIS PROCEDURE   * * *
   2  1  0    -1005.9200964212    -2.8777505859   0.926147824   0.224962238
   3  2  0    -1006.2206469536    -0.3005505324   0.374370918   0.221833519
   4  3  0    -1007.0456387373    -0.8249917837   0.070172958   0.013789630
   5  4  0    -1007.0524005457    -0.0067618084   0.005835192   0.005129434
   6  5  0    -1007.0533563061    -0.0009557603   0.004923025   0.001854865
 CONVERGED TO SWOFF, SO DFT CALCULATION IS NOW SWITCHED ON.
          * * *   INITIATING DIIS PROCEDURE   * * *
   7  6  0    -1012.1614186253    -5.1080623192   0.184294143   0.118881974
   8  7  0    -1012.3060965590    -0.1446779337   0.305986745   0.064560355
   9  8  0    -1012.1007713738     0.2053251852   0.210485696   0.132041745
  10  9  0    -1012.3875396785    -0.2867683047   0.021594010   0.016669796
  11 10  0    -1012.3956625320    -0.0081228535   0.008587708   0.003875258
  12 11  0    -1012.3960033473    -0.0003408153   0.002666120   0.001869439
  13 12  0    -1012.3960808035    -0.0000774562   0.000704609   0.000974187
  14 13  0    -1012.3960925925    -0.0000117890   0.000410342   0.000291287
  15 14  0    -1012.3960937622    -0.0000011698   0.000108934   0.000037892
  16 15  0    -1012.3960937929    -0.0000000307   0.000067275   0.000031102
  17 16  0    -1012.3960938121    -0.0000000193   0.000016368   0.000010657
  18 17  0    -1012.3960938144    -0.0000000022   0.000007821   0.000002973
  19 18  0    -1012.3960938146    -0.0000000002   0.000004289   0.000001585

          -----------------
          DENSITY CONVERGED
          -----------------
     TIME TO FORM FOCK OPERATORS=     191.6 SECONDS (      10.1 SEC/ITER)
     TIME TO SOLVE SCF EQUATIONS=       4.3 SECONDS (       0.2 SEC/ITER)

          ----------------------------
          DFT-D PARAMETERS AND RESULTS
          ----------------------------
 C6 COEFFICIENTS USED:
       2 C6 FOR ELEMENT   1
  Z=  1 CN= 0.912     C6(AA)=    3.03
  Z=  1 CN= 0.000     C6(AA)=    7.59
       5 C6 FOR ELEMENT   6
  Z=  6 CN= 0.000     C6(AA)=   49.11
  Z=  6 CN= 0.987     C6(AA)=   43.25
  Z=  6 CN= 1.998     C6(AA)=   29.36
  Z=  6 CN= 2.999     C6(AA)=   25.78
  Z=  6 CN= 3.984     C6(AA)=   18.21
       4 C6 FOR ELEMENT   7
  Z=  7 CN= 0.000     C6(AA)=   25.27
  Z=  7 CN= 0.994     C6(AA)=   22.12
  Z=  7 CN= 2.014     C6(AA)=   19.68
  Z=  7 CN= 2.990     C6(AA)=   15.58
       3 C6 FOR ELEMENT   8
  Z=  8 CN= 0.000     C6(AA)=   15.51
  Z=  8 CN= 0.993     C6(AA)=   12.82
  Z=  8 CN= 1.989     C6(AA)=   10.37

 #          XYZ [AU]             R0(AA) [ANG.]  CN         C6(AA)     C8(AA)   C10(AA) [AU]
  1   5.58193  -1.83393   2.06645    6  1.455  3.130        25.3       732.9     25966.8
  2   7.75016  -2.64295  -1.94848    6  1.455  3.120        25.4       734.0     26005.3
  3   4.76041  -5.74605  -0.20373    6  1.455  3.127        25.4       733.3     25979.8
  4   2.89544  -4.49720   2.92987    1  1.091  1.012         3.1        37.3       552.3
  5   8.06243   0.52686   0.26836    1  1.091  1.020         3.1        37.3       551.7
  6   6.67597  -6.01200  -3.53095    1  1.091  1.014         3.1        37.3       552.1
  7   6.49722  -4.94420  -1.96360    7  1.311  3.175        15.6       344.2      9301.4
  8   4.45116  -4.16981   1.82309    7  1.311  3.164        15.6       344.2      9302.4
  9   7.30957  -1.25207   0.20283    7  1.311  3.173        15.6       344.2      9301.6
 10   9.14036  -1.99503  -3.63221    8  1.241  1.063        12.8       257.5      6365.5
 11   3.65990  -7.75157  -0.44271    8  1.241  1.066        12.8       257.4      6364.4
 12   5.18140  -0.44976   3.84435    8  1.241  1.074        12.7       257.3      6360.7
 13   1.98621   5.65802   2.14144    6  1.455  3.128        25.4       733.2     25977.1
 14   3.17567   7.98915  -1.68192    6  1.455  3.119        25.4       734.1     26008.3
 15   6.16259   5.03431   0.31246    6  1.455  3.129        25.3       733.1     25972.5
 16   4.61527   3.00413   3.20891    1  1.091  1.018         3.1        37.3       551.8
 17  -0.28810   7.99776   0.07676    1  1.091  1.012         3.1        37.3       552.3
 18   6.77028   7.13510  -2.85241    1  1.091  1.014         3.1        37.3       552.1
 19   5.52413   6.84317  -1.44140    7  1.311  3.175        15.6       344.2      9301.4
 20   4.36404   4.58296   2.11516    7  1.311  3.168        15.6       344.2      9302.0
 21   1.54496   7.40027   0.25374    7  1.311  3.166        15.6       344.2      9302.3
 22   2.68365   9.41098  -3.39086    8  1.241  1.063        12.8       257.5      6365.6
 23   8.20612   3.97986   0.25705    8  1.241  1.077        12.7       257.2      6359.4
 24   0.44698   5.18490   3.76516    8  1.241  1.065        12.8       257.5      6364.6

     MOLECULAR C6(AA) [AU] =      7311.42

           DFT-D V3

 FUNCTIONAL: BLYP    

 PARAMETERS
 S6       :    1.0000
 RS6      :    1.0940
 S18      :    1.6820
 RS18     :    1.0000
 ALPHA6   :   14.0000
 ALPHA8   :   16.0000
 K1-K3    :   16.0000    1.3333    4.0000

 EDISP /KCAL,AU:   -17.8085 -0.02837958

 E6    /KCAL :    -6.5675
 E8    /KCAL :   -11.2410
 % E8        : 63.12

 FINAL R-BLYP ENERGY IS    -1012.4244733983 AFTER  19 ITERATIONS
 DFT EXCHANGE + CORRELATION ENERGY =      -128.0613214537
 TOTAL ELECTRON NUMBER             =       131.9999136532
 GRIMME'S DISPERSION ENERGY                     =       -0.0283795837
 ENERGY WITHOUT GRIMME'S DISPERSION CORRECTION IS    -1012.3960938146
 ...... END OF RHF CALCULATION ......
 CPU     0: STEP CPU TIME=   196.63 TOTAL CPU TIME=      220.5 (    3.7 MIN)
 TOTAL WALL CLOCK TIME=      334.5 SECONDS, CPU UTILIZATION IS  65.93%
 DDI: Creating Array [0] - 2211 x 2211 = 4888521 words.
 DDI: Creating Array [1] - 104196 x 2211 = 230377356 words.

          ---------------------------------------
          EDMISTON-RUEDENBERG ENERGY LOCALIZATION
          ---------------------------------------
          C.EDMISTON AND K.RUEDENBERG, REV.MOD.PHYS. 35, 457-465 (1963)

     --------------------------------------------
     PARTIAL TWO ELECTRON INTEGRAL TRANSFORMATION
     --------------------------------------------

 NUMBER OF CORE MOLECULAR ORBITALS     =    0
 NUMBER OF OCCUPIED MOLECULAR ORBITALS =   66
 TOTAL NUMBER OF MOLECULAR ORBITALS    =  438
 TOTAL NUMBER OF ATOMIC ORBITALS       =  456
 THRESHOLD FOR KEEPING TRANSFORMED 2E- INTEGRALS = 1.000E-09

 -------------------------------     ------------------------------
 DISTRIBUTED DATA TRANSFORMATION     PROGRAM WRITTEN BY G. FLETCHER
 -------------------------------     ------------------------------

 THE DISTRIBUTED MEMORY REQUIRED FOR THIS STEP IS MEMDDI=       236 MWORDS
 CREATING DISTRIBUTED STORAGE FOR [OCC OCC|OCC OCC] INTEGRALS
 CREATING WORKSPACE OF SIZE VVOO
 FOR    8 PROCESSORS, THE REPLICATED MEMORY NEEDED IS     3463034 WORDS.

      DIRECT 4-INDEX TRANSFORMATION 
      SCHWARZ INEQUALITY TEST SKIPPED   50112396 INTEGRAL BLOCKS
 ... END OF INTEGRAL TRANSFORMATION ...
 CPU     0: STEP CPU TIME=    95.77 TOTAL CPU TIME=      316.3 (    5.3 MIN)
 TOTAL WALL CLOCK TIME=      430.7 SECONDS, CPU UTILIZATION IS  73.44%

          ---------------------------------------
          EDMISTON-RUEDENBERG ENERGY LOCALIZATION
          ---------------------------------------
          C.EDMISTON AND K.RUEDENBERG, REV.MOD.PHYS. 35, 457-465 (1963)

 THIS LOCALIZATION REQUIRES   3087450 WORDS OF MEMORY.
 THE ENERGY LOCALIZATION STEP RUNS IN SERIAL, BUT WILL USE WAVEFUNCTION
 AND TRANSFORMED INTEGRAL INFORMATION PREVIOUSLY GENERATED IN PARALLEL MODE.
 DESTROYING DDI ARRAY [ 0] CONTAINING [OO|OO] INTEGRALS
 THIS LOCALIZATION HAS  66 ORBITALS, OF WHICH   0 ARE FROZEN.

 INITIAL LOCALIZATION SUMS ARE
     DIAGONAL SUM D=       87.2795294524
      COULOMB SUM C=      905.8593701276
     EXCHANGE SUM X=      122.4588012680

 BEGINNING 2X2 JACOBI ROTATIONS...
        410 PAIR ROTATIONS WHEN CONVERGED TO    1.00E-01
       1166 PAIR ROTATIONS WHEN CONVERGED TO    1.00E-02
       1714 PAIR ROTATIONS WHEN CONVERGED TO    1.00E-03
       1280 PAIR ROTATIONS WHEN CONVERGED TO    1.00E-04
       1576 PAIR ROTATIONS WHEN CONVERGED TO    1.00E-05
       1336 PAIR ROTATIONS WHEN CONVERGED TO    1.00E-06
       7482 TOTAL PAIR ROTATIONS REQUIRED TO CONVERGE TO    1.00E-06

   FINAL LOCALIZATION SUMS ARE
     DIAGONAL SUM D=      112.9497044978
      COULOMB SUM C=      905.8593701276
     EXCHANGE SUM X=      122.4588012680
 ... DONE WITH ENERGY LOCALIZATION ...
 CPU     0: STEP CPU TIME=    11.44 TOTAL CPU TIME=      327.7 (    5.5 MIN)
 TOTAL WALL CLOCK TIME=      442.2 SECONDS, CPU UTILIZATION IS  74.12%
  

   ------------------------------------
   LMO         D(SELF-REPULSION ENERGY)
   ------------------------------------
     1              4.8487436387
     2              4.8487736716
     3              4.8496345726
     4              4.8497155132
     5              4.8496178731
     6              4.8497302338
     7              4.1989019451
     8              4.1988937468
     9              4.1988669441
    10              4.1989059784
    11              4.1990040490
    12              4.1989761433
    13              3.5596232498
    14              3.5595987588
    15              3.5596326813
    16              3.5596285907
    17              3.5595860750
    18              3.5596455021
    19              0.7808671169
    20              0.7797665158
    21              0.7872061555
    22              0.7872346422
    23              0.7817387734
    24              0.7789300500
    25              0.7916574087
    26              0.7917509299
    27              0.7940028934
    28              0.7910649830
    29              0.7840428214
    30              0.7877249103
    31              0.7760740472
    32              0.7894992330
    33              0.7895035598
    34              0.7894078851
    35              0.7834106551
    36              0.7839224616
    37              0.7920974846
    38              0.7921299628
    39              0.7861673168
    40              0.7881250771
    41              0.7751704992
    42              0.7902379036
    43              0.7840508203
    44              0.6036046587
    45              0.8416474897
    46              0.8473532560
    47              0.8466834345
    48              0.7786698844
    49              0.5970732895
    50              0.8484534658
    51              0.5996866098
    52              0.8473529893
    53              0.5964216142
    54              0.8478371373
    55              0.8420407455
    56              0.6092545542
    57              0.8479461209
    58              0.7737557969
    59              0.7845181396
    60              0.7776893866
    61              0.5926462121
    62              0.8466493086
    63              0.8489885595
    64              0.7762613508
    65              0.8460953761
    66              0.8458118438

   --------------------------------------------------
   LMO   LMO   J(COULOMB ENERGY)   K(EXCHANGE ENERGY)
   --------------------------------------------------
     1     2        0.3099323601       -0.0000000524
     1     3        0.1602214611       -0.0000000026
     1     4        0.2717437915       -0.0000000238
     1     5        0.2325562649       -0.0000000584
     1     6        0.2324773864       -0.0000000663
     1     7        0.4657759006       -0.0000051265
     1     8        0.2135438120       -0.0000000760
     1     9        0.2219144077       -0.0000000734
     1    10        0.2680800493       -0.0000000595
     1    11        0.3716098960       -0.0000022085
     1    12        0.4660581761       -0.0000048343
     1    13        0.8756089944       -0.0000817606
     1    14        0.3031935444       -0.0000000457
     1    15        0.1944810203       -0.0000000008
     1    16        0.2817001206       -0.0000000893
     1    17        0.2995341266       -0.0000008962
     1    18        0.2983659260       -0.0000008973
     1    19        0.1734460409       -0.0000000878
     1    20        0.2558213355       -0.0000177144
     1    21        1.8053107217       -0.0166286218
     1    22        0.3163801252       -0.0000005927
     1    23        0.2701882350       -0.0000001720
     1    24        0.2547224262       -0.0000157168
     1    25        0.3451342372       -0.0000026470
     1    26        0.2864848064       -0.0000022012
     1    27        0.3867076174       -0.0000590001
     1    28        0.2081903414       -0.0000000488
     1    29        0.2069135135       -0.0000002357
     1    30        0.5988364371       -0.0001578495
     1    31        0.1980416696       -0.0000004214
     1    32        0.5981625593       -0.0001587895
     1    33        0.3316995152       -0.0000043726
     1    34        0.2856605988       -0.0000017151
     1    35        0.4637860551       -0.0000620904
     1    36        0.2353217221       -0.0000003733
     1    37        0.2531898759       -0.0000012831
     1    38        0.3858548209       -0.0000616875
     1    39        0.4510126824       -0.0000315116
     1    40        0.2125672430       -0.0000000550
     1    41        0.4473500717       -0.0000324781
     1    42        0.2409494662       -0.0000014285
     1    43        0.2545960657       -0.0000159001
     1    44        0.2133588281       -0.0000004090
     1    45        2.0339923976       -0.0199868784
     1    46        0.2867596920       -0.0000014396
     1    47        0.1577570077       -0.0000000110
     1    48        1.8147831186       -0.0168450877
     1    49        0.2228786353       -0.0000003321
     1    50        0.2349921887       -0.0000033583
     1    51        0.3438535944       -0.0000036130
     1    52        0.2534805069       -0.0000002044
     1    53        0.2735107059       -0.0000353148
     1    54        0.2347472873       -0.0000030084
     1    55        0.3360715636       -0.0000051747
     1    56        0.4763253153       -0.0003610936
     1    57        2.0504660212       -0.0202937593
     1    58        0.3020047135       -0.0000005993
     1    59        0.1699618497       -0.0000000213
     1    60        0.2822731558       -0.0000004324
     1    61        0.4806120288       -0.0004054805
     1    62        0.2240654285       -0.0000096194
     1    63        0.2883733001       -0.0000010151
     1    64        0.2557144111       -0.0000147702
     1    65        0.1586904449       -0.0000000086
     1    66        0.2241515575       -0.0000101585
  
     2     1        0.3099323601       -0.0000000524
     2     3        0.2335988531       -0.0000000694
     2     4        0.2325508609       -0.0000000585
     2     5        0.2781636708       -0.0000000322
     2     6        0.1587198418       -0.0000000022
     2     7        0.2195977447       -0.0000000799
     2     8        0.2671071579       -0.0000000693
     2     9        0.4680774394       -0.0000052246
     2    10        0.2138503967       -0.0000000882
     2    11        0.4642404441       -0.0000046910
     2    12        0.3769016280       -0.0000024766
     2    13        0.3016490215       -0.0000000578
     2    14        0.8711311666       -0.0000794418
     2    15        0.2977850294       -0.0000008999
     2    16        0.2980670602       -0.0000008732
     2    17        0.1936598602       -0.0000000014
     2    18        0.2859302733       -0.0000000903
     2    19        0.2563054753       -0.0000152265
     2    20        0.2858390171       -0.0000003273
     2    21        0.3127634283       -0.0000006077
     2    22        1.8069191854       -0.0166625730
     2    23        0.2546985464       -0.0000163250
     2    24        0.1692075582       -0.0000000212
     2    25        0.5964270250       -0.0001555100
     2    26        0.2077464973       -0.0000000614
     2    27        0.2107407055       -0.0000000531
     2    28        0.2848946591       -0.0000020926
     2    29        0.4523692529       -0.0000307510
     2    30        0.3454989742       -0.0000032843
     2    31        0.2347624845       -0.0000004686
     2    32        0.2506730355       -0.0000014145
     2    33        0.3853021084       -0.0000622147
     2    34        0.2418718127       -0.0000016706
     2    35        0.4468364205       -0.0000316436
     2    36        0.1973788433       -0.0000004536
     2    37        0.5999571176       -0.0001573976
     2    38        0.3362671186       -0.0000047654
     2    39        0.4736261643       -0.0000670431
     2    40        0.3866201529       -0.0000590377
     2    41        0.2048583625       -0.0000002564
     2    42        0.2852969863       -0.0000021638
     2    43        0.2777334147       -0.0000002056
     2    44        0.2717764069       -0.0000336951
     2    45        0.3373417781       -0.0000050677
     2    46        2.0489202196       -0.0202532864
     2    47        0.2247334179       -0.0000100898
     2    48        0.3036215490       -0.0000004839
     2    49        0.4790309614       -0.0003686122
     2    50        0.2966819049       -0.0000014405
     2    51        0.4798434029       -0.0003893978
     2    52        0.2238027060       -0.0000100455
     2    53        0.2147771035       -0.0000003960
     2    54        0.1567371926       -0.0000000084
     2    55        2.0345046880       -0.0199862040
     2    56        0.2204015009       -0.0000001639
     2    57        0.2861665933       -0.0000012581
     2    58        1.8104073988       -0.0168119740
     2    59        0.2546711850       -0.0000136072
     2    60        0.2553964219       -0.0000158503
     2    61        0.3493430293       -0.0000040690
     2    62        0.1566526897       -0.0000000117
     2    63        0.2352428175       -0.0000032895
     2    64        0.1714477670       -0.0000000466
     2    65        0.2368683987       -0.0000036088
     2    66        0.2586843796       -0.0000003305
  
     3     1        0.1602214611       -0.0000000026
     3     2        0.2335988531       -0.0000000694
     3     4        0.2323824543       -0.0000000598
     3     5        0.1525642625       -0.0000000000
     3     6        0.1146677871       -0.0000000000
     3     7        0.1364791569       -0.0000000010
     3     8        0.4637133852       -0.0000050775
     3     9        0.4657274580       -0.0000053379
     3    10        0.1340339743       -0.0000000006
     3    11        0.2662033338       -0.0000000577
     3    12        0.1643874111       -0.0000000093
     3    13        0.1558661257       -0.0000000003
     3    14        0.2983380345       -0.0000009227
     3    15        0.8801487503       -0.0000848450
     3    16        0.2976618755       -0.0000008889
     3    17        0.1279826986       -0.0000000000
     3    18        0.1520289729       -0.0000000004
     3    19        1.7983238941       -0.0165390475
     3    20        0.1568320506       -0.0000000031
     3    21        0.1635109145       -0.0000000714
     3    22        0.2561213576       -0.0000145217
     3    23        0.2542980143       -0.0000155880
     3    24        0.1173267968       -0.0000000040
     3    25        0.2849738155       -0.0000021539
     3    26        0.1329170113       -0.0000000001
     3    27        0.1342286910       -0.0000000044
     3    28        0.5966738693       -0.0001594141
     3    29        0.4484222867       -0.0000271622
     3    30        0.1623913306       -0.0000000106
     3    31        0.4440133745       -0.0000281391
     3    32        0.1455152057       -0.0000000188
     3    33        0.2850195918       -0.0000021581
     3    34        0.1424564409       -0.0000000209
     3    35        0.2357068491       -0.0000007306
     3    36        0.1294606450       -0.0000000047
     3    37        0.3860315302       -0.0000626786
     3    38        0.1604900821       -0.0000000255
     3    39        0.1743556262       -0.0000003824
     3    40        0.5991019572       -0.0001607302
     3    41        0.1337104810       -0.0000000047
     3    42        0.3853000572       -0.0000640922
     3    43        0.1488343174       -0.0000000007
     3    44        0.4758331723       -0.0003972334
     3    45        0.1655042276       -0.0000001532
     3    46        0.2367092983       -0.0000035069
     3    47        2.0484553036       -0.0201922572
     3    48        0.1550326302       -0.0000001286
     3    49        0.4711697506       -0.0003721705
     3    50        0.1564046525       -0.0000000147
     3    51        0.2712942677       -0.0000397508
     3    52        0.2352043678       -0.0000034561
     3    53        0.1327791195       -0.0000000009
     3    54        0.1137864958       -0.0000000002
     3    55        0.2236067354       -0.0000090977
     3    56        0.1347412162       -0.0000000437
     3    57        0.1559905672       -0.0000000111
     3    58        0.2526878488       -0.0000138395
     3    59        1.8007969334       -0.0165312351
     3    60        0.2552647816       -0.0000161360
     3    61        0.1589967178       -0.0000000087
     3    62        0.1136307463       -0.0000000007
     3    63        0.2238510860       -0.0000103819
     3    64        0.1214236843       -0.0000000093
     3    65        2.0475639241       -0.0201724189
     3    66        0.1481972430       -0.0000000027
  
     4     1        0.2717437915       -0.0000000238
     4     2        0.2325508609       -0.0000000585
     4     3        0.2323824543       -0.0000000598
     4     5        0.1483078640       -0.0000000002
     4     6        0.1430794611       -0.0000000000
     4     7        0.1930623876       -0.0000000007
     4     8        0.4659647962       -0.0000053628
     4     9        0.2681470587       -0.0000000569
     4    10        0.1524881522       -0.0000000002
     4    11        0.4661474221       -0.0000052692
     4    12        0.1987884341       -0.0000000032
     4    13        0.2256970857       -0.0000000030
     4    14        0.2995490060       -0.0000009588
     4    15        0.2983202375       -0.0000009488
     4    16        0.8762908666       -0.0000827333
     4    17        0.1612495601       -0.0000000003
     4    18        0.1648148354       -0.0000000002
     4    19        0.2551492239       -0.0000155354
     4    20        0.1570865588       -0.0000000059
     4    21        0.2658357798       -0.0000002700
     4    22        0.2548719408       -0.0000139052
     4    23        1.8004191311       -0.0165581738
     4    24        0.1469989584       -0.0000000048
     4    25        0.3861021243       -0.0000613452
     4    26        0.1581049438       -0.0000000022
     4    27        0.1802518318       -0.0000000254
     4    28        0.3858343512       -0.0000626374
     4    29        0.2353556279       -0.0000004556
     4    30        0.2120136118       -0.0000000229
     4    31        0.4492491814       -0.0000331914
     4    32        0.2080838526       -0.0000000100
     4    33        0.5978041622       -0.0001578112
     4    34        0.1593526201       -0.0000000078
     4    35        0.4489503875       -0.0000349980
     4    36        0.1428479728       -0.0000000013
     4    37        0.2860820210       -0.0000019218
     4    38        0.1848214772       -0.0000000197
     4    39        0.2052855226       -0.0000001254
     4    40        0.2857560648       -0.0000020209
     4    41        0.1977280061       -0.0000000017
     4    42        0.5969847938       -0.0001589712
     4    43        0.1515425017       -0.0000000054
     4    44        0.4755587443       -0.0003923789
     4    45        0.2794412197       -0.0000011956
     4    46        0.2238125831       -0.0000090496
     4    47        0.2348622511       -0.0000034306
     4    48        0.2465435212       -0.0000005791
     4    49        0.2741624031       -0.0000394944
     4    50        0.1503380790       -0.0000000373
     4    51        0.4726231770       -0.0003826665
     4    52        2.0484453177       -0.0202043830
     4    53        0.1521449774       -0.0000000122
     4    54        0.1444100200       -0.0000000040
     4    55        0.2341334914       -0.0000026915
     4    56        0.1887250085       -0.0000000922
     4    57        0.2726223363       -0.0000007230
     4    58        0.2536605116       -0.0000159489
     4    59        0.2544863269       -0.0000150358
     4    60        1.7881609114       -0.0163662637
     4    61        0.1942545477       -0.0000000455
     4    62        0.1392427183       -0.0000000071
     4    63        2.0517154009       -0.0202272163
     4    64        0.1520547384       -0.0000000080
     4    65        0.2239721473       -0.0000099297
     4    66        0.1438587874       -0.0000000164
  
     5     1        0.2325562649       -0.0000000584
     5     2        0.2781636708       -0.0000000322
     5     3        0.1525642625       -0.0000000000
     5     4        0.1483078640       -0.0000000002
     5     6        0.2335281922       -0.0000000624
     5     7        0.2661415120       -0.0000000711
     5     8        0.1575912904       -0.0000000002
     5     9        0.2041298985       -0.0000000008
     5    10        0.4656547534       -0.0000053359
     5    11        0.2008888087       -0.0000000023
     5    12        0.4638541305       -0.0000051205
     5    13        0.2977120340       -0.0000009173
     5    14        0.2327340069       -0.0000000036
     5    15        0.1695989884       -0.0000000002
     5    16        0.1672002795       -0.0000000002
     5    17        0.2982188802       -0.0000009043
     5    18        0.8798796629       -0.0000848122
     5    19        0.1619123163       -0.0000000048
     5    20        1.7967867921       -0.0165210153
     5    21        0.2547835903       -0.0000150872
     5    22        0.2743001134       -0.0000003559
     5    23        0.1522241524       -0.0000000081
     5    24        0.2548909694       -0.0000148586
     5    25        0.2164044650       -0.0000000352
     5    26        0.3857365766       -0.0000622594
     5    27        0.2846149736       -0.0000020661
     5    28        0.1646853522       -0.0000000017
     5    29        0.2095485848       -0.0000000024
     5    30        0.3846429127       -0.0000630791
     5    31        0.1479844779       -0.0000000012
     5    32        0.2843584858       -0.0000019413
     5    33        0.1872819852       -0.0000000197
     5    34        0.5991328281       -0.0001627206
     5    35        0.2058861474       -0.0000000813
     5    36        0.4477443713       -0.0000261778
     5    37        0.2183500664       -0.0000000139
     5    38        0.5972355254       -0.0001583670
     5    39        0.4458061180       -0.0000282078
     5    40        0.1903073236       -0.0000000156
     5    41        0.2346046439       -0.0000007932
     5    42        0.1637284328       -0.0000000046
     5    43        1.7992367400       -0.0164999927
     5    44        0.1566954508       -0.0000000129
     5    45        0.2346168504       -0.0000030273
     5    46        0.2815317706       -0.0000008796
     5    47        0.1479436367       -0.0000000041
[...]
    75    15        0.2288524130       -0.0000005953
    75    16        0.3132192551       -0.0000145488
    75    17        0.2669513656       -0.0000002314
    75    18        0.2385428739       -0.0000006505
    75    19        0.2130449506       -0.0000018897
    75    20        0.2214905835       -0.0000021354
    75    21        0.3408280007       -0.0002964377
    75    22        0.2404903080       -0.0000030281
    75    23        0.2944869666       -0.0002561719
    75    24        0.2346660857       -0.0000078469
    75    25        0.2852579703       -0.0000173977
    75    26        0.2566494902       -0.0000024911
    75    27        0.3004539436       -0.0000320268
    75    28        0.2542728175       -0.0000061359
    75    29        0.2090917800       -0.0000010408
    75    30        0.2988542750       -0.0000439948
    75    31        0.2573910372       -0.0000025803
    75    32        0.3283221321       -0.0001071967
    75    33        0.3150544626       -0.0000741696
    75    34        0.2447476323       -0.0000025751
    75    35        0.3106889451       -0.0000873937
    75    36        0.2217042934       -0.0000035278
    75    37        0.2413370647       -0.0000013821
    75    38        0.2623773954       -0.0000058582
    75    39        0.2599106320       -0.0000036950
    75    40        0.2319916558       -0.0000011653
    75    41        0.3238631581       -0.0001623147
    75    42        0.2906590749       -0.0000280160
    75    43        0.2068452182       -0.0000020051
    75    44        0.2553524908       -0.0000174994
    75    45        0.2990567534       -0.0000571627
    75    46        0.2119377098       -0.0000027049
    75    47        0.1932614374       -0.0000005289
    75    48        0.2961651578       -0.0002404030
    75    49        0.2219317600       -0.0000051221
    75    50        0.1991752590       -0.0000007559
    75    51        0.2843013814       -0.0001763199
    75    52        0.2994051735       -0.0000647612
    75    53        0.2344807804       -0.0000140409
    75    54        0.2334292539       -0.0000069577
    75    55        0.2223354457       -0.0000033705
    75    56        0.2963442202       -0.0003057682
    75    57        0.3099299638       -0.0001748710
    75    58        0.2221792133       -0.0000051712
    75    59        0.1997149552       -0.0000015375
    75    60        0.3386923331       -0.0003139431
    75    61        0.2633625285       -0.0000241494
    75    62        0.2238190454       -0.0000065150
    75    63        0.3108834739       -0.0001823956
    75    64        0.2561764796       -0.0000068376
    75    65        0.1893115817       -0.0000020594
    75    66        0.1962087627       -0.0000033839
    75    67        1.3006302780       -0.0016422398
    75    68        1.2209976910       -0.0021618459
    75    69        1.2652284036       -0.0030207533
    75    70        1.2398215064       -0.0022971506
    75    71        1.3900504241       -0.0116245068
    75    72        0.8911155500       -0.0446871913
    75    73        0.8915215875       -0.0443954109
    75    74        0.8914988439       -0.0445017896
  

   ---------------------------------------------------
   LMO(ALPHA)   T(KINETIC ENERGY)  V(POTENTIAL ENERGY)
   ---------------------------------------------------
     1            302.4747189379     -617.6996213429
     2             61.5473108869     -167.7450407147
     3             61.5650979125     -159.6866371118
     4             61.5497825312     -168.7891473653
     5             61.5646057027     -162.8371722071
     6             61.5681915658     -160.0265958587
     7             61.5790083011     -163.8218888429
     8             46.1652743750     -140.3809095920
     9             46.1669127328     -139.4321332039
    10             46.1660763007     -139.1671926653
    11             46.1674317094     -141.2624555402
    12             46.1711196992     -144.5373674927
    13             46.1674824820     -144.4974621651
    14             33.2078862425     -120.4331695736
    15             33.2088047111     -115.4631947872
    16             33.2076323304     -121.2252570172
    17             33.2092410453     -117.8838911647
    18             33.2080026851     -115.9668963455
    19             33.2078872787     -118.6187024819
    20             36.9873057609     -140.5400274595
    21             36.9803527159     -139.9551776057
    22             36.9867364350     -139.8397108872
    23             36.9620451255     -140.5620736350
    24              3.9036437674      -54.4393777007
    25              3.9208940735      -58.1522379148
    26              3.9270058952      -62.8361410493
    27              3.9040480701      -61.6392208423
    28              3.8979780892      -57.9546754916
    29              3.9085191858      -55.5426019025
    30              3.0218967823      -62.1038506147
    31              2.5728416845      -51.8463178717
    32              3.0212168371      -59.5713897487
    33              3.0328681975      -64.7662186733
    34              3.0401478203      -60.9114505004
    35              3.0155146817      -63.4264634221
    36              2.9997660537      -60.0202826090
    37              3.0209739557      -63.8231984202
    38              3.0098713584      -65.0093455696
    39              3.0186726512      -59.6731450814
    40              2.5757960377      -53.4810572066
    41              2.6413051421      -60.1591440044
    42              3.0230319523      -60.8830589644
    43              3.0316940696      -63.0069249759
    44              2.1481069597      -56.8526325331
    45              2.5642111491      -52.2745765974
    46              2.6456811242      -60.3602986787
    47              3.0074915458      -60.3024871895
    48              2.5815046868      -54.7384133837
    49              3.9235015174      -55.1105887626
    50              3.9405771998      -63.9410278169
    51              3.9494677585      -59.4568822127
    52              3.9442217504      -60.4914205807
    53              3.9771243273      -50.3560950171
    54              3.8945362504      -60.6684085601
    55              3.9850632170      -54.1544958390
    56              3.9718950633      -50.8538208453
    57              3.9971785013      -55.1545117014
    58              3.9000559062      -57.2616456905
    59              3.1440539880      -60.1693703402
    60              3.1520374263      -57.4698508691
    61              3.9719258673      -57.8906411717
    62              3.1707560840      -56.8066067561
    63              3.1630180502      -55.8518706852
    64              3.9720578375      -50.5103455895
    65              3.1773863985      -55.7135814511
    66              3.9928329476      -58.9806862923
    67              3.9703307639      -53.0940484124
    68              3.1551991875      -60.2246153937
    69              3.8890327823      -54.6931102687
    70              3.9185610108      -59.4360401429
    71              3.9794326699      -54.0917680163
    72              3.9617632681      -50.6421825564
    73              2.1652375880      -54.1028163950
    74              2.1433765390      -57.2149928448
    75              2.1742304604      -54.2866025210

          ----------------------------
          DFT-D PARAMETERS AND RESULTS
          ----------------------------
 C6 COEFFICIENTS USED:
       2 C6 FOR ELEMENT   1
  Z=  1 CN= 0.912     C6(AA)=    3.03
  Z=  1 CN= 0.000     C6(AA)=    7.59
       5 C6 FOR ELEMENT   6
  Z=  6 CN= 0.000     C6(AA)=   49.11
  Z=  6 CN= 0.987     C6(AA)=   43.25
  Z=  6 CN= 1.998     C6(AA)=   29.36
  Z=  6 CN= 2.999     C6(AA)=   25.78
  Z=  6 CN= 3.984     C6(AA)=   18.21
       4 C6 FOR ELEMENT   7
  Z=  7 CN= 0.000     C6(AA)=   25.27
  Z=  7 CN= 0.994     C6(AA)=   22.12
  Z=  7 CN= 2.014     C6(AA)=   19.68
  Z=  7 CN= 2.990     C6(AA)=   15.58
       3 C6 FOR ELEMENT   8
  Z=  8 CN= 0.000     C6(AA)=   15.51
  Z=  8 CN= 0.993     C6(AA)=   12.82
  Z=  8 CN= 1.989     C6(AA)=   10.37
       2 C6 FOR ELEMENT  17
  Z= 17 CN= 0.000     C6(AA)=   92.35
  Z= 17 CN= 0.997     C6(AA)=   90.40

 #          XYZ [AU]             R0(AA) [ANG.]  CN         C6(AA)     C8(AA)   C10(AA) [AU]
  1   5.58193  -1.83393   2.06645    6  1.455  3.135        25.3       732.5     25950.2
  2   7.75016  -2.64295  -1.94848    6  1.455  3.120        25.4       734.0     26003.4
  3   4.76041  -5.74605  -0.20373    6  1.455  3.128        25.3       733.2     25975.1
  4   2.89544  -4.49720   2.92987    1  1.091  1.013         3.1        37.3       552.2
  5   8.06243   0.52686   0.26836    1  1.091  1.021         3.1        37.3       551.7
  6   6.67597  -6.01200  -3.53095    1  1.091  1.014         3.1        37.3       552.1
  7   6.49722  -4.94420  -1.96360    7  1.311  3.176        15.6       344.2      9301.3
  8   4.45116  -4.16981   1.82309    7  1.311  3.167        15.6       344.2      9302.1
  9   7.30957  -1.25207   0.20283    7  1.311  3.174        15.6       344.2      9301.5
 10   9.14036  -1.99503  -3.63221    8  1.241  1.063        12.8       257.5      6365.4
 11   3.65990  -7.75157  -0.44271    8  1.241  1.066        12.8       257.4      6364.3
 12   5.18140  -0.44976   3.84435    8  1.241  1.075        12.7       257.3      6360.2
 13   1.98621   5.65802   2.14144    6  1.455  3.131        25.3       732.8     25963.9
 14   3.17567   7.98915  -1.68192    6  1.455  3.119        25.4       734.1     26007.0
 15   6.16259   5.03431   0.31246    6  1.455  3.130        25.3       733.0     25970.0
 16   4.61527   3.00413   3.20891    1  1.091  1.018         3.1        37.3       551.8
 17  -0.28810   7.99776   0.07676    1  1.091  1.012         3.1        37.3       552.3
 18   6.77028   7.13510  -2.85241    1  1.091  1.014         3.1        37.3       552.1
 19   5.52413   6.84317  -1.44140    7  1.311  3.175        15.6       344.2      9301.4
 20   4.36404   4.58296   2.11516    7  1.311  3.170        15.6       344.2      9301.8
 21   1.54496   7.40027   0.25374    7  1.311  3.167        15.6       344.2      9302.2
 22   2.68365   9.41098  -3.39086    8  1.241  1.063        12.8       257.5      6365.6
 23   8.20612   3.97986   0.25705    8  1.241  1.077        12.7       257.2      6359.4
 24   0.44698   5.18490   3.76516    8  1.241  1.067        12.8       257.4      6364.0
 25  -0.00706  -0.00015  -0.98161   17  1.552  0.022        92.3      3851.2    196841.1

     MOLECULAR C6(AA) [AU] =      9040.66

           DFT-D V3

 FUNCTIONAL: BLYP    

 PARAMETERS
 S6       :    1.0000
 RS6      :    1.0940
 S18      :    1.6820
 RS18     :    1.0000
 ALPHA6   :   14.0000
 ALPHA8   :   16.0000
 K1-K3    :   16.0000    1.3333    4.0000

 EDISP /KCAL,AU:   -22.3324 -0.03558887

 E6    /KCAL :    -8.5930
 E8    /KCAL :   -13.7393
 % E8        : 61.52

          ------------------------------------
          RESULTS OF LMO INTERACTION ANALYSIS
          ------------------------------------

     LMO ENERGY
     T   ELECTRON KINETIC ENERGY
     V   ELECTRON-NUCLEUS POTENTIAL ENERGY
     X   ELECTRON-ELECTRON EXCHANGE ENERGY
     J   ELECTRON-ELECTRON REPULSION ENERGY
     N   NUCLEUS-NUCLEUS REPULSION ENERGY

 --------------
 MONOMER ENERGY
 --------------

 MONOMER    1

                   OWN BASIS           ALL BASIS        IN SUPER MOL

 T             1011.11893829       1011.11461727       1011.01633308
 V            -5039.90699298      -5039.90564552      -5038.48675331
 X              -10.36170736        -10.36167986        -10.34227183
 J             1698.76903576       1698.77174463       1697.45790317
 N             1332.73454055       1332.73454055       1332.73454055
 EC              -4.74990960         -4.74990966         -4.74826199
 E            -1012.42447340      -1012.43191970      -1012.36851033

 MONOMER    2

                   OWN BASIS           ALL BASIS        IN SUPER MOL

 T              458.95919309        458.96028035        459.02211052
 V            -1099.82086385      -1099.79326723      -1099.91665464
 X               -3.82782673         -3.82804711         -3.82801764
 J              185.12899633        185.09991479        185.20724842
 N                0.00000000          0.00000000          0.00000000
 EC              -0.72409671         -0.72391785         -0.72410977
 E             -460.28459788       -460.32062622       -460.23942311

 ------------------------------------------------------------
 SUPER MOLECULE ENERGY  USING NON-ANTISYMMETRIC WAVEFUNCTION
 (ELECTROSTATIC ENERGY: V J N CHANGE)
 ------------------------------------------------------------

              FROM OWN BASIS      FROM ALL BASIS        IN SUPER MOL
 T             1470.07813138       1470.07489762       1470.03844360
 V            -6724.08094662      -6724.06200056      -6722.77426274
 X              -14.18953408        -14.18972697        -14.17028946
 J             2184.15510769       2184.13677636       2182.88713565
 N             1616.79288317       1616.79288317       1616.79288317
 EC              -5.47400631         -5.47382751         -5.47237176
 E            -1472.71836478      -1472.72099789      -1472.69846155

 ----------------------------------------------------------------------
 SUPER MOLECULE ENERGY  USING ANTISYMMETRIC NONORTHONORMAL WAVEFUNCTION
 (EXCHANGE ENERGY: ONLY X CHANGES)
 ----------------------------------------------------------------------

              FROM OWN BASIS      FROM ALL BASIS        IN SUPER MOL
 T             1470.07813138       1470.07489762       1470.03844360
 V            -6724.08094662      -6724.06200056      -6722.77426274
 X              -14.19370569        -14.19541403        -14.17739858
 J             2184.15510769       2184.13677636       2182.88713565
 N             1616.79288317       1616.79288317       1616.79288317
 EC              -5.47400631         -5.47382751         -5.47237176
 E            -1472.72253639      -1472.72668494      -1472.70557067

 -----------------------------------------------------------------------
 SUPER MOLECULE ENERGY  USING ANTISYMMETRIC AND ORTHONORMAL WAVEFUNCTION
 (REPULSION ENERGY: T V X J CHANGE)
 -----------------------------------------------------------------------

              FROM OWN BASIS      FROM ALL BASIS        IN SUPER MOL
 T             1470.26225868       1470.26621675       1470.03844360
 V            -6724.35424501      -6724.34004034      -6722.77426274
 X              -14.20429900        -14.20350944        -14.17739858
 J             2184.28520760       2184.26565984       2182.88713565
 N             1616.79288317       1616.79288317       1616.79288317
 EC              -5.47400631         -5.47382751         -5.47237176
 E            -1472.69220088      -1472.69261751      -1472.70557067

 ---------------------------------------------
 SUPER MOLECULE ENERGY  USING SCF WAVEFUNCTION
 (POLARIZATION ENERGY: T V X J CHANGE)
 ---------------------------------------------
 T             1470.03844360       1470.03844360
 V            -6722.77426274      -6722.77426274
 X              -14.17739858        -14.17739858
 J             2182.88713565       2182.88713565
 N             1616.79288317       1616.79288317
 EC              -5.48037630         -5.48037630
 E            -1472.74916127      -1472.74916127


                   *******************************
                   SUMMARY OF INTERACTION ENERGIES
                      - PEIFENG SU AND HUI LI -   
                   *******************************


 -------------
 OWN BASIS SET                                       HARTREE          KCAL/MOL
 -------------
 ELECTROSTATIC ENERGY                  ES=         -0.009293             -5.83
 EXCHANGE ENERGY                       EX=         -0.004172             -2.62
 REPULSION ENERGY                     REP=          0.030336             19.04
 POLARIZATION ENERGY                  POL=         -0.050590            -31.75
 DFT DISPERSION ENERGY               DISP=         -0.006370             -4.00
 TOTAL INTERACTION ENERGY HF OR DFT     E=         -0.040090            -25.16
  

 -------------
 ALL BASIS SET                                       HARTREE          KCAL/MOL
 -------------
 ELECTROSTATIC ENERGY                  ES=          0.031548             19.80
 EXCHANGE ENERGY                       EX=         -0.005687             -3.57
 REPULSION ENERGY                     REP=          0.034067             21.38
 POLARIZATION ENERGY                  POL=         -0.049995            -31.37
 DFT DISPERSION ENERGY               DISP=         -0.006549             -4.11
 TOTAL INTERACTION ENERGY HF OR DFT     E=          0.003385              2.12

 -------------------------------------
 IN SUPER MOL (FOR SPECIAL COMPARISON)               HARTREE          KCAL/MOL
 -------------------------------------
 ELECTROSTATIC ENERGY                  ES=         -0.090528            -56.81
 EXCHANGE ENERGY                       EX=         -0.007109             -4.46
 DFT DISPERSION ENERGY               DISP=         -0.008005             -5.02
 TOTAL INTERACTION ENERGY HF OR DFT     E=         -0.141228            -88.62

                   *******************************
                   END OF LMO INTERACTION ANALYSIS
                   *******************************

 CPU     0: STEP CPU TIME=     0.00 TOTAL CPU TIME=     2566.1 (   42.8 MIN)
 TOTAL WALL CLOCK TIME=     3186.1 SECONDS, CPU UTILIZATION IS  80.54%
             14531243  WORDS OF DYNAMIC MEMORY USED
 EXECUTION OF GAMESS TERMINATED NORMALLY Thu Aug 16 16:19:14 2018
 DDI: 347776008 bytes (331.7 MB / 41 MWords) used by master data server.

 ----------------------------------------
 CPU timing information for all processes
 ========================================
 0: 2419.888 + 146.244 = 2566.132
 1: 2015.508 + 146.60 = 2161.568
 2: 2018.104 + 146.148 = 2164.252
 3: 2015.388 + 144.140 = 2159.528
 4: 2016.276 + 147.968 = 2164.244
 5: 2006.92 + 145.340 = 2151.432
 6: 2015.48 + 146.280 = 2161.328
 7: 2014.820 + 146.980 = 2161.800
 ----------------------------------------
 ddikick.x: exited gracefully.
----- accounting info -----
Files used on the master node quitex-server were:
-rw-r--r-- 1 nicolai usersquitex       1954 ago 16 15:26 /scr/nicolai/AC4-1-Cl-2mol.F05
-rw-r--r-- 1 nicolai usersquitex 5141142720 ago 16 15:52 /scr/nicolai/AC4-1-Cl-2mol.F08
-rw-r--r-- 1 nicolai usersquitex 5102740160 ago 16 15:52 /scr/nicolai/AC4-1-Cl-2mol.F08.001
-rw-r--r-- 1 nicolai usersquitex 5051376736 ago 16 15:52 /scr/nicolai/AC4-1-Cl-2mol.F08.002
-rw-r--r-- 1 nicolai usersquitex 5061937440 ago 16 15:52 /scr/nicolai/AC4-1-Cl-2mol.F08.003
-rw-r--r-- 1 nicolai usersquitex 4999533280 ago 16 15:52 /scr/nicolai/AC4-1-Cl-2mol.F08.004
-rw-r--r-- 1 nicolai usersquitex 5117141120 ago 16 15:52 /scr/nicolai/AC4-1-Cl-2mol.F08.005
-rw-r--r-- 1 nicolai usersquitex 5054496944 ago 16 15:52 /scr/nicolai/AC4-1-Cl-2mol.F08.006
-rw-r--r-- 1 nicolai usersquitex 5106340400 ago 16 15:52 /scr/nicolai/AC4-1-Cl-2mol.F08.007
-rw-r--r-- 1 nicolai usersquitex     877976 ago 16 16:18 /scr/nicolai/AC4-1-Cl-2mol.F09
-rw-r--r-- 1 nicolai usersquitex          0 ago 16 15:31 /scr/nicolai/AC4-1-Cl-2mol.F09.001
-rw-r--r-- 1 nicolai usersquitex          0 ago 16 15:31 /scr/nicolai/AC4-1-Cl-2mol.F09.002
-rw-r--r-- 1 nicolai usersquitex          0 ago 16 15:31 /scr/nicolai/AC4-1-Cl-2mol.F09.003
-rw-r--r-- 1 nicolai usersquitex          0 ago 16 15:31 /scr/nicolai/AC4-1-Cl-2mol.F09.004
-rw-r--r-- 1 nicolai usersquitex          0 ago 16 15:31 /scr/nicolai/AC4-1-Cl-2mol.F09.005
-rw-r--r-- 1 nicolai usersquitex          0 ago 16 15:31 /scr/nicolai/AC4-1-Cl-2mol.F09.006
-rw-r--r-- 1 nicolai usersquitex          0 ago 16 15:31 /scr/nicolai/AC4-1-Cl-2mol.F09.007
-rw-r--r-- 1 nicolai usersquitex   50650560 ago 16 16:19 /scr/nicolai/AC4-1-Cl-2mol.F10
jue ago 16 16:19:21 ART 2018
0.1u 4.3s 53:13.96 0.1% 0+0k 184+16io 7pf+0w
